ITEM: TIMESTEP
0
ITEM: NUMBER OF ATOMS
43272
ITEM: BOX BOUNDS pp pp pp
-1.5050000000000000e+02 1.5050000000000000e+02
-1.5050000000000000e+02 1.5050000000000000e+02
-1.5050000000000000e+02 1.5050000000000000e+02
ITEM: ATOMS id c_1 c_2 
35 190.371 0.00141579 
107 285.556 0.00141579 
179 285.556 0.00141579 
251 285.556 0.00141579 
323 285.556 0.00141579 
395 285.556 0.00141579 
467 285.556 0.00141579 
539 285.556 0.00141579 
611 285.556 0.00141579 
683 285.556 0.00141579 
755 285.556 0.00141579 
827 285.556 0.00141579 
899 285.556 0.00141579 
971 285.556 0.00141579 
1043 285.556 0.00141579 
1115 285.556 0.00141579 
1187 285.556 0.00141579 
1259 285.556 0.00141579 
1331 285.556 0.00141579 
1403 285.556 0.00141579 
1475 285.556 0.00141579 
1547 285.556 0.00141579 
1619 285.556 0.00141579 
1691 285.556 0.00141579 
1763 285.556 0.00141579 
1835 285.556 0.00141579 
1907 285.556 0.00141579 
1979 285.556 0.00141579 
2051 285.556 0.00141579 
2123 285.556 0.00141579 
2195 285.556 0.00141579 
2267 285.556 0.00141579 
2339 285.556 0.00141579 
2411 285.556 0.00141579 
2483 285.556 0.00141579 
2555 285.556 0.00141579 
2627 285.556 0.00141579 
2699 285.556 0.00141579 
2771 285.556 0.00141579 
2843 285.556 0.00141579 
2915 285.556 0.00141579 
2987 285.556 0.00141579 
3059 285.556 0.00141579 
3131 285.556 0.00141579 
3203 285.556 0.00141579 
3275 285.556 0.00141579 
3347 285.556 0.00141579 
3419 285.556 0.00141579 
3491 285.556 0.00141579 
3563 285.556 0.00141579 
3635 285.556 0.00141579 
3707 285.556 0.00141579 
3779 285.556 0.00141579 
3851 285.556 0.00141579 
3923 285.556 0.00141579 
3995 285.556 0.00141579 
4067 285.556 0.00141579 
4139 285.556 0.00141579 
4211 285.556 0.00141579 
4283 285.556 0.00141579 
4355 285.556 0.00141579 
4427 285.556 0.00141579 
4499 285.556 0.00141579 
4571 285.556 0.00141579 
4643 285.556 0.00141579 
4715 285.556 0.00141579 
4787 285.556 0.00141579 
4859 285.556 0.00141579 
4931 285.556 0.00141579 
5003 285.556 0.00141579 
5075 285.556 0.00141579 
5147 285.556 0.00141579 
5219 285.556 0.00141579 
5291 285.556 0.00141579 
5363 285.556 0.00141579 
5435 285.556 0.00141579 
5507 285.556 0.00141579 
5579 285.556 0.00141579 
5651 285.556 0.00141579 
5723 285.556 0.00141579 
5795 285.556 0.00141579 
5867 285.556 0.00141579 
5939 285.556 0.00141579 
6011 285.556 0.00141579 
6083 285.556 0.00141579 
6155 285.556 0.00141579 
6227 285.556 0.00141579 
6299 285.556 0.00141579 
6371 285.556 0.00141579 
6443 285.556 0.00141579 
6515 285.556 0.00141579 
6587 285.556 0.00141579 
6659 285.556 0.00141579 
6731 285.556 0.00141579 
6803 285.556 0.00141579 
6875 285.556 0.00141579 
6947 285.556 0.00141579 
7019 285.556 0.00141579 
7091 285.556 0.00141579 
7163 285.556 0.00141579 
7235 285.556 0.00141579 
7307 285.556 0.00141579 
7379 285.556 0.00141579 
7451 285.556 0.00141579 
7523 285.556 0.00141579 
7595 285.556 0.00141579 
7667 285.556 0.00141579 
7739 285.556 0.00141579 
7811 285.556 0.00141579 
7883 285.556 0.00141579 
7955 285.556 0.00141579 
8027 285.556 0.00141579 
8099 285.556 0.00141579 
8171 285.556 0.00141579 
8243 285.556 0.00141579 
8315 285.556 0.00141579 
8387 285.556 0.00141579 
8459 285.556 0.00141579 
8531 285.556 0.00141579 
8603 285.556 0.00141579 
8675 285.556 0.00141579 
8747 285.556 0.00141579 
8819 285.556 0.00141579 
8891 285.556 0.00141579 
8963 285.556 0.00141579 
9035 285.556 0.00141579 
9107 285.556 0.00141579 
9179 285.556 0.00141579 
9251 285.556 0.00141579 
9323 285.556 0.00141579 
9395 285.556 0.00141579 
9467 285.556 0.00141579 
9539 285.556 0.00141579 
9611 285.556 0.00141579 
9683 285.556 0.00141579 
9755 285.556 0.00141579 
9827 285.556 0.00141579 
9899 285.556 0.00141579 
9971 285.556 0.00141579 
10043 285.556 0.00141579 
10115 285.556 0.00141579 
10187 285.556 0.00141579 
10259 285.556 0.00141579 
10331 285.556 0.00141579 
10403 285.556 0.00141579 
10475 285.556 0.00141579 
10547 285.556 0.00141579 
10619 285.556 0.00141579 
10691 285.556 0.00141579 
10763 285.556 0.00141579 
21635 95.1854 0.000707897 
21707 285.556 0.00141579 
21779 285.556 0.00141579 
21851 285.556 0.00141579 
21923 285.556 0.00141579 
21995 285.556 0.00141579 
22067 285.556 0.00141579 
22139 285.556 0.00141579 
22211 285.556 0.00141579 
22283 285.556 0.00141579 
22355 285.556 0.00141579 
22427 285.556 0.00141579 
22499 285.556 0.00141579 
22571 285.556 0.00141579 
22643 285.556 0.00141579 
22715 285.556 0.00141579 
22787 285.556 0.00141579 
22859 285.556 0.00141579 
22931 285.556 0.00141579 
23003 285.556 0.00141579 
23075 285.556 0.00141579 
23147 285.556 0.00141579 
23219 285.556 0.00141579 
23291 285.556 0.00141579 
23363 285.556 0.00141579 
23435 285.556 0.00141579 
23507 285.556 0.00141579 
23579 285.556 0.00141579 
23651 285.556 0.00141579 
23723 285.556 0.00141579 
23795 285.556 0.00141579 
23867 285.556 0.00141579 
23939 285.556 0.00141579 
24011 285.556 0.00141579 
24083 285.556 0.00141579 
24155 285.556 0.00141579 
24227 285.556 0.00141579 
24299 285.556 0.00141579 
24371 285.556 0.00141579 
24443 285.556 0.00141579 
24515 285.556 0.00141579 
24587 285.556 0.00141579 
24659 285.556 0.00141579 
24731 285.556 0.00141579 
24803 285.556 0.00141579 
24875 285.556 0.00141579 
24947 285.556 0.00141579 
25019 285.556 0.00141579 
25091 285.556 0.00141579 
25163 285.556 0.00141579 
25235 285.556 0.00141579 
25307 285.556 0.00141579 
25379 285.556 0.00141579 
25451 285.556 0.00141579 
25523 285.556 0.00141579 
25595 285.556 0.00141579 
25667 285.556 0.00141579 
25739 285.556 0.00141579 
25811 285.556 0.00141579 
25883 285.556 0.00141579 
25955 285.556 0.00141579 
26027 285.556 0.00141579 
26099 285.556 0.00141579 
26171 285.556 0.00141579 
26243 285.556 0.00141579 
26315 285.556 0.00141579 
26387 285.556 0.00141579 
26459 285.556 0.00141579 
26531 285.556 0.00141579 
26603 285.556 0.00141579 
26675 285.556 0.00141579 
26747 285.556 0.00141579 
26819 285.556 0.00141579 
26891 285.556 0.00141579 
26963 285.556 0.00141579 
27035 285.556 0.00141579 
27107 285.556 0.00141579 
27179 285.556 0.00141579 
27251 285.556 0.00141579 
27323 285.556 0.00141579 
27395 285.556 0.00141579 
27467 285.556 0.00141579 
27539 285.556 0.00141579 
27611 285.556 0.00141579 
27683 285.556 0.00141579 
27755 285.556 0.00141579 
27827 285.556 0.00141579 
27899 285.556 0.00141579 
27971 285.556 0.00141579 
28043 285.556 0.00141579 
28115 285.556 0.00141579 
28187 285.556 0.00141579 
28259 285.556 0.00141579 
28331 285.556 0.00141579 
28403 285.556 0.00141579 
28475 285.556 0.00141579 
28547 285.556 0.00141579 
28619 285.556 0.00141579 
28691 285.556 0.00141579 
28763 285.556 0.00141579 
28835 285.556 0.00141579 
28907 285.556 0.00141579 
28979 285.556 0.00141579 
29051 285.556 0.00141579 
29123 285.556 0.00141579 
29195 285.556 0.00141579 
29267 285.556 0.00141579 
29339 285.556 0.00141579 
29411 285.556 0.00141579 
29483 285.556 0.00141579 
29555 285.556 0.00141579 
29627 285.556 0.00141579 
29699 285.556 0.00141579 
29771 285.556 0.00141579 
29843 285.556 0.00141579 
29915 285.556 0.00141579 
29987 285.556 0.00141579 
30059 285.556 0.00141579 
30131 285.556 0.00141579 
30203 285.556 0.00141579 
30275 285.556 0.00141579 
30347 285.556 0.00141579 
30419 285.556 0.00141579 
30491 285.556 0.00141579 
30563 285.556 0.00141579 
30635 285.556 0.00141579 
30707 285.556 0.00141579 
30779 285.556 0.00141579 
30851 285.556 0.00141579 
30923 285.556 0.00141579 
30995 285.556 0.00141579 
31067 285.556 0.00141579 
31139 285.556 0.00141579 
31211 285.556 0.00141579 
31283 285.556 0.00141579 
31355 285.556 0.00141579 
31427 285.556 0.00141579 
31499 285.556 0.00141579 
31571 285.556 0.00141579 
31643 285.556 0.00141579 
31715 285.556 0.00141579 
31787 285.556 0.00141579 
31859 285.556 0.00141579 
31931 285.556 0.00141579 
32003 285.556 0.00141579 
32075 285.556 0.00141579 
32147 285.556 0.00141579 
32219 285.556 0.00141579 
32291 285.556 0.00141579 
32363 285.556 0.00141579 
36 190.371 0.00141579 
108 285.556 0.00141579 
180 285.556 0.00141579 
252 285.556 0.00141579 
324 285.556 0.00141579 
396 285.556 0.00141579 
468 285.556 0.00141579 
540 285.556 0.00141579 
612 285.556 0.00141579 
684 285.556 0.00141579 
756 285.556 0.00141579 
828 285.556 0.00141579 
900 285.556 0.00141579 
972 285.556 0.00141579 
1044 285.556 0.00141579 
1116 285.556 0.00141579 
1188 285.556 0.00141579 
1260 285.556 0.00141579 
1332 285.556 0.00141579 
1404 285.556 0.00141579 
1476 285.556 0.00141579 
1548 285.556 0.00141579 
1620 285.556 0.00141579 
1692 285.556 0.00141579 
1764 285.556 0.00141579 
1836 285.556 0.00141579 
1908 285.556 0.00141579 
1980 285.556 0.00141579 
2052 285.556 0.00141579 
2124 285.556 0.00141579 
2196 285.556 0.00141579 
2268 285.556 0.00141579 
2340 285.556 0.00141579 
2412 285.556 0.00141579 
2484 285.556 0.00141579 
2556 285.556 0.00141579 
2628 285.556 0.00141579 
2700 285.556 0.00141579 
2772 285.556 0.00141579 
2844 285.556 0.00141579 
2916 285.556 0.00141579 
2988 285.556 0.00141579 
3060 285.556 0.00141579 
3132 285.556 0.00141579 
3204 285.556 0.00141579 
3276 285.556 0.00141579 
3348 285.556 0.00141579 
3420 285.556 0.00141579 
3492 285.556 0.00141579 
3564 285.556 0.00141579 
3636 285.556 0.00141579 
3708 285.556 0.00141579 
3780 285.556 0.00141579 
3852 285.556 0.00141579 
3924 285.556 0.00141579 
3996 285.556 0.00141579 
4068 285.556 0.00141579 
4140 285.556 0.00141579 
4212 285.556 0.00141579 
4284 285.556 0.00141579 
4356 285.556 0.00141579 
4428 285.556 0.00141579 
4500 285.556 0.00141579 
4572 285.556 0.00141579 
4644 285.556 0.00141579 
4716 285.556 0.00141579 
4788 285.556 0.00141579 
4860 285.556 0.00141579 
4932 285.556 0.00141579 
5004 285.556 0.00141579 
5076 285.556 0.00141579 
5148 285.556 0.00141579 
5220 285.556 0.00141579 
5292 285.556 0.00141579 
5364 285.556 0.00141579 
5436 285.556 0.00141579 
5508 285.556 0.00141579 
5580 285.556 0.00141579 
5652 285.556 0.00141579 
5724 285.556 0.00141579 
5796 285.556 0.00141579 
5868 285.556 0.00141579 
5940 285.556 0.00141579 
6012 285.556 0.00141579 
6084 285.556 0.00141579 
6156 285.556 0.00141579 
6228 285.556 0.00141579 
6300 285.556 0.00141579 
6372 285.556 0.00141579 
6444 285.556 0.00141579 
6516 285.556 0.00141579 
6588 285.556 0.00141579 
6660 285.556 0.00141579 
6732 285.556 0.00141579 
6804 285.556 0.00141579 
6876 285.556 0.00141579 
6948 285.556 0.00141579 
7020 285.556 0.00141579 
7092 285.556 0.00141579 
7164 285.556 0.00141579 
7236 285.556 0.00141579 
7308 285.556 0.00141579 
7380 285.556 0.00141579 
7452 285.556 0.00141579 
7524 285.556 0.00141579 
7596 285.556 0.00141579 
7668 285.556 0.00141579 
7740 285.556 0.00141579 
7812 285.556 0.00141579 
7884 285.556 0.00141579 
7956 285.556 0.00141579 
8028 285.556 0.00141579 
8100 285.556 0.00141579 
8172 285.556 0.00141579 
8244 285.556 0.00141579 
8316 285.556 0.00141579 
8388 285.556 0.00141579 
8460 285.556 0.00141579 
8532 285.556 0.00141579 
8604 285.556 0.00141579 
8676 285.556 0.00141579 
8748 285.556 0.00141579 
8820 285.556 0.00141579 
8892 285.556 0.00141579 
8964 285.556 0.00141579 
9036 285.556 0.00141579 
9108 285.556 0.00141579 
9180 285.556 0.00141579 
9252 285.556 0.00141579 
9324 285.556 0.00141579 
9396 285.556 0.00141579 
9468 285.556 0.00141579 
9540 285.556 0.00141579 
9612 285.556 0.00141579 
9684 285.556 0.00141579 
9756 285.556 0.00141579 
9828 285.556 0.00141579 
9900 285.556 0.00141579 
9972 285.556 0.00141579 
10044 285.556 0.00141579 
10116 285.556 0.00141579 
10188 285.556 0.00141579 
10260 285.556 0.00141579 
10332 285.556 0.00141579 
10404 285.556 0.00141579 
10476 285.556 0.00141579 
10548 285.556 0.00141579 
10620 285.556 0.00141579 
10692 285.556 0.00141579 
10764 285.556 0.00141579 
21633 95.1854 0.000707897 
21705 285.556 0.00141579 
21777 285.556 0.00141579 
21849 285.556 0.00141579 
21921 285.556 0.00141579 
21993 285.556 0.00141579 
22065 285.556 0.00141579 
22137 285.556 0.00141579 
22209 285.556 0.00141579 
22281 285.556 0.00141579 
22353 285.556 0.00141579 
22425 285.556 0.00141579 
22497 285.556 0.00141579 
22569 285.556 0.00141579 
22641 285.556 0.00141579 
22713 285.556 0.00141579 
22785 285.556 0.00141579 
22857 285.556 0.00141579 
22929 285.556 0.00141579 
23001 285.556 0.00141579 
23073 285.556 0.00141579 
23145 285.556 0.00141579 
23217 285.556 0.00141579 
23289 285.556 0.00141579 
23361 285.556 0.00141579 
23433 285.556 0.00141579 
23505 285.556 0.00141579 
23577 285.556 0.00141579 
23649 285.556 0.00141579 
23721 285.556 0.00141579 
23793 285.556 0.00141579 
23865 285.556 0.00141579 
23937 285.556 0.00141579 
24009 285.556 0.00141579 
24081 285.556 0.00141579 
24153 285.556 0.00141579 
24225 285.556 0.00141579 
24297 285.556 0.00141579 
24369 285.556 0.00141579 
24441 285.556 0.00141579 
24513 285.556 0.00141579 
24585 285.556 0.00141579 
24657 285.556 0.00141579 
24729 285.556 0.00141579 
24801 285.556 0.00141579 
24873 285.556 0.00141579 
24945 285.556 0.00141579 
25017 285.556 0.00141579 
25089 285.556 0.00141579 
25161 285.556 0.00141579 
25233 285.556 0.00141579 
25305 285.556 0.00141579 
25377 285.556 0.00141579 
25449 285.556 0.00141579 
25521 285.556 0.00141579 
25593 285.556 0.00141579 
25665 285.556 0.00141579 
25737 285.556 0.00141579 
25809 285.556 0.00141579 
25881 285.556 0.00141579 
25953 285.556 0.00141579 
26025 285.556 0.00141579 
26097 285.556 0.00141579 
26169 285.556 0.00141579 
26241 285.556 0.00141579 
26313 285.556 0.00141579 
26385 285.556 0.00141579 
26457 285.556 0.00141579 
26529 285.556 0.00141579 
26601 285.556 0.00141579 
26673 285.556 0.00141579 
26745 285.556 0.00141579 
26817 285.556 0.00141579 
26889 285.556 0.00141579 
26961 285.556 0.00141579 
27033 285.556 0.00141579 
27105 285.556 0.00141579 
27177 285.556 0.00141579 
27249 285.556 0.00141579 
27321 285.556 0.00141579 
27393 285.556 0.00141579 
27465 285.556 0.00141579 
27537 285.556 0.00141579 
27609 285.556 0.00141579 
27681 285.556 0.00141579 
27753 285.556 0.00141579 
27825 285.556 0.00141579 
27897 285.556 0.00141579 
27969 285.556 0.00141579 
28041 285.556 0.00141579 
28113 285.556 0.00141579 
28185 285.556 0.00141579 
28257 285.556 0.00141579 
28329 285.556 0.00141579 
28401 285.556 0.00141579 
28473 285.556 0.00141579 
28545 285.556 0.00141579 
28617 285.556 0.00141579 
28689 285.556 0.00141579 
28761 285.556 0.00141579 
28833 285.556 0.00141579 
28905 285.556 0.00141579 
28977 285.556 0.00141579 
29049 285.556 0.00141579 
29121 285.556 0.00141579 
29193 285.556 0.00141579 
29265 285.556 0.00141579 
29337 285.556 0.00141579 
29409 285.556 0.00141579 
29481 285.556 0.00141579 
29553 285.556 0.00141579 
29625 285.556 0.00141579 
29697 285.556 0.00141579 
29769 285.556 0.00141579 
29841 285.556 0.00141579 
29913 285.556 0.00141579 
29985 285.556 0.00141579 
30057 285.556 0.00141579 
30129 285.556 0.00141579 
30201 285.556 0.00141579 
30273 285.556 0.00141579 
30345 285.556 0.00141579 
30417 285.556 0.00141579 
30489 285.556 0.00141579 
30561 285.556 0.00141579 
30633 285.556 0.00141579 
30705 285.556 0.00141579 
30777 285.556 0.00141579 
30849 285.556 0.00141579 
30921 285.556 0.00141579 
30993 285.556 0.00141579 
31065 285.556 0.00141579 
31137 285.556 0.00141579 
31209 285.556 0.00141579 
31281 285.556 0.00141579 
31353 285.556 0.00141579 
31425 285.556 0.00141579 
31497 285.556 0.00141579 
31569 285.556 0.00141579 
31641 285.556 0.00141579 
31713 285.556 0.00141579 
31785 285.556 0.00141579 
31857 285.556 0.00141579 
31929 285.556 0.00141579 
32001 285.556 0.00141579 
32073 285.556 0.00141579 
32145 285.556 0.00141579 
32217 285.556 0.00141579 
32289 285.556 0.00141579 
32361 285.556 0.00141579 
34 190.371 0.00141579 
106 285.556 0.00141579 
178 285.556 0.00141579 
250 285.556 0.00141579 
322 285.556 0.00141579 
394 285.556 0.00141579 
466 285.556 0.00141579 
538 285.556 0.00141579 
610 285.556 0.00141579 
682 285.556 0.00141579 
754 285.556 0.00141579 
826 285.556 0.00141579 
898 285.556 0.00141579 
970 285.556 0.00141579 
1042 285.556 0.00141579 
1114 285.556 0.00141579 
1186 285.556 0.00141579 
1258 285.556 0.00141579 
1330 285.556 0.00141579 
1402 285.556 0.00141579 
1474 285.556 0.00141579 
1546 285.556 0.00141579 
1618 285.556 0.00141579 
1690 285.556 0.00141579 
1762 285.556 0.00141579 
1834 285.556 0.00141579 
1906 285.556 0.00141579 
1978 285.556 0.00141579 
2050 285.556 0.00141579 
2122 285.556 0.00141579 
2194 285.556 0.00141579 
2266 285.556 0.00141579 
2338 285.556 0.00141579 
2410 285.556 0.00141579 
2482 285.556 0.00141579 
2554 285.556 0.00141579 
2626 285.556 0.00141579 
2698 285.556 0.00141579 
2770 285.556 0.00141579 
2842 285.556 0.00141579 
2914 285.556 0.00141579 
2986 285.556 0.00141579 
3058 285.556 0.00141579 
3130 285.556 0.00141579 
3202 285.556 0.00141579 
3274 285.556 0.00141579 
3346 285.556 0.00141579 
3418 285.556 0.00141579 
3490 285.556 0.00141579 
3562 285.556 0.00141579 
3634 285.556 0.00141579 
3706 285.556 0.00141579 
3778 285.556 0.00141579 
3850 285.556 0.00141579 
3922 285.556 0.00141579 
3994 285.556 0.00141579 
4066 285.556 0.00141579 
4138 285.556 0.00141579 
4210 285.556 0.00141579 
4282 285.556 0.00141579 
4354 285.556 0.00141579 
4426 285.556 0.00141579 
4498 285.556 0.00141579 
4570 285.556 0.00141579 
4642 285.556 0.00141579 
4714 285.556 0.00141579 
4786 285.556 0.00141579 
4858 285.556 0.00141579 
4930 285.556 0.00141579 
5002 285.556 0.00141579 
5074 285.556 0.00141579 
5146 285.556 0.00141579 
5218 285.556 0.00141579 
5290 285.556 0.00141579 
5362 285.556 0.00141579 
5434 285.556 0.00141579 
5506 285.556 0.00141579 
5578 285.556 0.00141579 
5650 285.556 0.00141579 
5722 285.556 0.00141579 
5794 285.556 0.00141579 
5866 285.556 0.00141579 
5938 285.556 0.00141579 
6010 285.556 0.00141579 
6082 285.556 0.00141579 
6154 285.556 0.00141579 
6226 285.556 0.00141579 
6298 285.556 0.00141579 
6370 285.556 0.00141579 
6442 285.556 0.00141579 
6514 285.556 0.00141579 
6586 285.556 0.00141579 
6658 285.556 0.00141579 
6730 285.556 0.00141579 
6802 285.556 0.00141579 
6874 285.556 0.00141579 
6946 285.556 0.00141579 
7018 285.556 0.00141579 
7090 285.556 0.00141579 
7162 285.556 0.00141579 
7234 285.556 0.00141579 
7306 285.556 0.00141579 
7378 285.556 0.00141579 
7450 285.556 0.00141579 
7522 285.556 0.00141579 
7594 285.556 0.00141579 
7666 285.556 0.00141579 
7738 285.556 0.00141579 
7810 285.556 0.00141579 
7882 285.556 0.00141579 
7954 285.556 0.00141579 
8026 285.556 0.00141579 
8098 285.556 0.00141579 
8170 285.556 0.00141579 
8242 285.556 0.00141579 
8314 285.556 0.00141579 
8386 285.556 0.00141579 
8458 285.556 0.00141579 
8530 285.556 0.00141579 
8602 285.556 0.00141579 
8674 285.556 0.00141579 
8746 285.556 0.00141579 
8818 285.556 0.00141579 
8890 285.556 0.00141579 
8962 285.556 0.00141579 
9034 285.556 0.00141579 
9106 285.556 0.00141579 
9178 285.556 0.00141579 
9250 285.556 0.00141579 
9322 285.556 0.00141579 
9394 285.556 0.00141579 
9466 285.556 0.00141579 
9538 285.556 0.00141579 
9610 285.556 0.00141579 
9682 285.556 0.00141579 
9754 285.556 0.00141579 
9826 285.556 0.00141579 
9898 285.556 0.00141579 
9970 285.556 0.00141579 
10042 285.556 0.00141579 
10114 285.556 0.00141579 
10186 285.556 0.00141579 
10258 285.556 0.00141579 
10330 285.556 0.00141579 
10402 285.556 0.00141579 
10474 285.556 0.00141579 
10546 285.556 0.00141579 
10618 285.556 0.00141579 
10690 285.556 0.00141579 
10762 285.556 0.00141579 
21634 95.1854 0.000707897 
21706 285.556 0.00141579 
21778 285.556 0.00141579 
21850 285.556 0.00141579 
21922 285.556 0.00141579 
21994 285.556 0.00141579 
22066 285.556 0.00141579 
22138 285.556 0.00141579 
22210 285.556 0.00141579 
22282 285.556 0.00141579 
22354 285.556 0.00141579 
22426 285.556 0.00141579 
22498 285.556 0.00141579 
22570 285.556 0.00141579 
22642 285.556 0.00141579 
22714 285.556 0.00141579 
22786 285.556 0.00141579 
22858 285.556 0.00141579 
22930 285.556 0.00141579 
23002 285.556 0.00141579 
23074 285.556 0.00141579 
23146 285.556 0.00141579 
23218 285.556 0.00141579 
23290 285.556 0.00141579 
23362 285.556 0.00141579 
23434 285.556 0.00141579 
23506 285.556 0.00141579 
23578 285.556 0.00141579 
23650 285.556 0.00141579 
23722 285.556 0.00141579 
23794 285.556 0.00141579 
23866 285.556 0.00141579 
23938 285.556 0.00141579 
24010 285.556 0.00141579 
24082 285.556 0.00141579 
24154 285.556 0.00141579 
24226 285.556 0.00141579 
24298 285.556 0.00141579 
24370 285.556 0.00141579 
24442 285.556 0.00141579 
24514 285.556 0.00141579 
24586 285.556 0.00141579 
24658 285.556 0.00141579 
24730 285.556 0.00141579 
24802 285.556 0.00141579 
24874 285.556 0.00141579 
24946 285.556 0.00141579 
25018 285.556 0.00141579 
25090 285.556 0.00141579 
25162 285.556 0.00141579 
25234 285.556 0.00141579 
25306 285.556 0.00141579 
25378 285.556 0.00141579 
25450 285.556 0.00141579 
25522 285.556 0.00141579 
25594 285.556 0.00141579 
25666 285.556 0.00141579 
25738 285.556 0.00141579 
25810 285.556 0.00141579 
25882 285.556 0.00141579 
25954 285.556 0.00141579 
26026 285.556 0.00141579 
26098 285.556 0.00141579 
26170 285.556 0.00141579 
26242 285.556 0.00141579 
26314 285.556 0.00141579 
26386 285.556 0.00141579 
26458 285.556 0.00141579 
26530 285.556 0.00141579 
26602 285.556 0.00141579 
26674 285.556 0.00141579 
26746 285.556 0.00141579 
26818 285.556 0.00141579 
26890 285.556 0.00141579 
26962 285.556 0.00141579 
27034 285.556 0.00141579 
27106 285.556 0.00141579 
27178 285.556 0.00141579 
27250 285.556 0.00141579 
27322 285.556 0.00141579 
27394 285.556 0.00141579 
27466 285.556 0.00141579 
27538 285.556 0.00141579 
27610 285.556 0.00141579 
27682 285.556 0.00141579 
27754 285.556 0.00141579 
27826 285.556 0.00141579 
27898 285.556 0.00141579 
27970 285.556 0.00141579 
28042 285.556 0.00141579 
28114 285.556 0.00141579 
28186 285.556 0.00141579 
28258 285.556 0.00141579 
28330 285.556 0.00141579 
28402 285.556 0.00141579 
28474 285.556 0.00141579 
28546 285.556 0.00141579 
28618 285.556 0.00141579 
28690 285.556 0.00141579 
28762 285.556 0.00141579 
28834 285.556 0.00141579 
28906 285.556 0.00141579 
28978 285.556 0.00141579 
29050 285.556 0.00141579 
29122 285.556 0.00141579 
29194 285.556 0.00141579 
29266 285.556 0.00141579 
29338 285.556 0.00141579 
29410 285.556 0.00141579 
29482 285.556 0.00141579 
29554 285.556 0.00141579 
29626 285.556 0.00141579 
29698 285.556 0.00141579 
29770 285.556 0.00141579 
29842 285.556 0.00141579 
29914 285.556 0.00141579 
29986 285.556 0.00141579 
30058 285.556 0.00141579 
30130 285.556 0.00141579 
30202 285.556 0.00141579 
30274 285.556 0.00141579 
30346 285.556 0.00141579 
30418 285.556 0.00141579 
30490 285.556 0.00141579 
30562 285.556 0.00141579 
30634 285.556 0.00141579 
30706 285.556 0.00141579 
30778 285.556 0.00141579 
30850 285.556 0.00141579 
30922 285.556 0.00141579 
30994 285.556 0.00141579 
31066 285.556 0.00141579 
31138 285.556 0.00141579 
31210 285.556 0.00141579 
31282 285.556 0.00141579 
31354 285.556 0.00141579 
31426 285.556 0.00141579 
31498 285.556 0.00141579 
31570 285.556 0.00141579 
31642 285.556 0.00141579 
31714 285.556 0.00141579 
31786 285.556 0.00141579 
31858 285.556 0.00141579 
31930 285.556 0.00141579 
32002 285.556 0.00141579 
32074 285.556 0.00141579 
32146 285.556 0.00141579 
32218 285.556 0.00141579 
32290 285.556 0.00141579 
32362 285.556 0.00141579 
32 190.371 0.00141579 
104 285.556 0.00141579 
176 285.556 0.00141579 
248 285.556 0.00141579 
320 285.556 0.00141579 
392 285.556 0.00141579 
464 285.556 0.00141579 
536 285.556 0.00141579 
608 285.556 0.00141579 
680 285.556 0.00141579 
752 285.556 0.00141579 
824 285.556 0.00141579 
896 285.556 0.00141579 
968 285.556 0.00141579 
1040 285.556 0.00141579 
1112 285.556 0.00141579 
1184 285.556 0.00141579 
1256 285.556 0.00141579 
1328 285.556 0.00141579 
1400 285.556 0.00141579 
1472 285.556 0.00141579 
1544 285.556 0.00141579 
1616 285.556 0.00141579 
1688 285.556 0.00141579 
1760 285.556 0.00141579 
1832 285.556 0.00141579 
1904 285.556 0.00141579 
1976 285.556 0.00141579 
2048 285.556 0.00141579 
2120 285.556 0.00141579 
2192 285.556 0.00141579 
2264 285.556 0.00141579 
2336 285.556 0.00141579 
2408 285.556 0.00141579 
2480 285.556 0.00141579 
2552 285.556 0.00141579 
2624 285.556 0.00141579 
2696 285.556 0.00141579 
2768 285.556 0.00141579 
2840 285.556 0.00141579 
2912 285.556 0.00141579 
2984 285.556 0.00141579 
3056 285.556 0.00141579 
3128 285.556 0.00141579 
3200 285.556 0.00141579 
3272 285.556 0.00141579 
3344 285.556 0.00141579 
3416 285.556 0.00141579 
3488 285.556 0.00141579 
3560 285.556 0.00141579 
3632 285.556 0.00141579 
3704 285.556 0.00141579 
3776 285.556 0.00141579 
3848 285.556 0.00141579 
3920 285.556 0.00141579 
3992 285.556 0.00141579 
4064 285.556 0.00141579 
4136 285.556 0.00141579 
4208 285.556 0.00141579 
4280 285.556 0.00141579 
4352 285.556 0.00141579 
4424 285.556 0.00141579 
4496 285.556 0.00141579 
4568 285.556 0.00141579 
4640 285.556 0.00141579 
4712 285.556 0.00141579 
4784 285.556 0.00141579 
4856 285.556 0.00141579 
4928 285.556 0.00141579 
5000 285.556 0.00141579 
5072 285.556 0.00141579 
5144 285.556 0.00141579 
5216 285.556 0.00141579 
5288 285.556 0.00141579 
5360 285.556 0.00141579 
5432 285.556 0.00141579 
5504 285.556 0.00141579 
5576 285.556 0.00141579 
5648 285.556 0.00141579 
5720 285.556 0.00141579 
5792 285.556 0.00141579 
5864 285.556 0.00141579 
5936 285.556 0.00141579 
6008 285.556 0.00141579 
6080 285.556 0.00141579 
6152 285.556 0.00141579 
6224 285.556 0.00141579 
6296 285.556 0.00141579 
6368 285.556 0.00141579 
6440 285.556 0.00141579 
6512 285.556 0.00141579 
6584 285.556 0.00141579 
6656 285.556 0.00141579 
6728 285.556 0.00141579 
6800 285.556 0.00141579 
6872 285.556 0.00141579 
6944 285.556 0.00141579 
7016 285.556 0.00141579 
7088 285.556 0.00141579 
7160 285.556 0.00141579 
7232 285.556 0.00141579 
7304 285.556 0.00141579 
7376 285.556 0.00141579 
7448 285.556 0.00141579 
7520 285.556 0.00141579 
7592 285.556 0.00141579 
7664 285.556 0.00141579 
7736 285.556 0.00141579 
7808 285.556 0.00141579 
7880 285.556 0.00141579 
7952 285.556 0.00141579 
8024 285.556 0.00141579 
8096 285.556 0.00141579 
8168 285.556 0.00141579 
8240 285.556 0.00141579 
8312 285.556 0.00141579 
8384 285.556 0.00141579 
8456 285.556 0.00141579 
8528 285.556 0.00141579 
8600 285.556 0.00141579 
8672 285.556 0.00141579 
8744 285.556 0.00141579 
8816 285.556 0.00141579 
8888 285.556 0.00141579 
8960 285.556 0.00141579 
9032 285.556 0.00141579 
9104 285.556 0.00141579 
9176 285.556 0.00141579 
9248 285.556 0.00141579 
9320 285.556 0.00141579 
9392 285.556 0.00141579 
9464 285.556 0.00141579 
9536 285.556 0.00141579 
9608 285.556 0.00141579 
9680 285.556 0.00141579 
9752 285.556 0.00141579 
9824 285.556 0.00141579 
9896 285.556 0.00141579 
9968 285.556 0.00141579 
10040 285.556 0.00141579 
10112 285.556 0.00141579 
10184 285.556 0.00141579 
10256 285.556 0.00141579 
10328 285.556 0.00141579 
10400 285.556 0.00141579 
10472 285.556 0.00141579 
10544 285.556 0.00141579 
10616 285.556 0.00141579 
10688 285.556 0.00141579 
10760 285.556 0.00141579 
21632 95.1854 0.000707897 
21704 285.556 0.00141579 
21776 285.556 0.00141579 
21848 285.556 0.00141579 
21920 285.556 0.00141579 
21992 285.556 0.00141579 
22064 285.556 0.00141579 
22136 285.556 0.00141579 
22208 285.556 0.00141579 
22280 285.556 0.00141579 
22352 285.556 0.00141579 
22424 285.556 0.00141579 
22496 285.556 0.00141579 
22568 285.556 0.00141579 
22640 285.556 0.00141579 
22712 285.556 0.00141579 
22784 285.556 0.00141579 
22856 285.556 0.00141579 
22928 285.556 0.00141579 
23000 285.556 0.00141579 
23072 285.556 0.00141579 
23144 285.556 0.00141579 
23216 285.556 0.00141579 
23288 285.556 0.00141579 
23360 285.556 0.00141579 
23432 285.556 0.00141579 
23504 285.556 0.00141579 
23576 285.556 0.00141579 
23648 285.556 0.00141579 
23720 285.556 0.00141579 
23792 285.556 0.00141579 
23864 285.556 0.00141579 
23936 285.556 0.00141579 
24008 285.556 0.00141579 
24080 285.556 0.00141579 
24152 285.556 0.00141579 
24224 285.556 0.00141579 
24296 285.556 0.00141579 
24368 285.556 0.00141579 
24440 285.556 0.00141579 
24512 285.556 0.00141579 
24584 285.556 0.00141579 
24656 285.556 0.00141579 
24728 285.556 0.00141579 
24800 285.556 0.00141579 
24872 285.556 0.00141579 
24944 285.556 0.00141579 
25016 285.556 0.00141579 
25088 285.556 0.00141579 
25160 285.556 0.00141579 
25232 285.556 0.00141579 
25304 285.556 0.00141579 
25376 285.556 0.00141579 
25448 285.556 0.00141579 
25520 285.556 0.00141579 
25592 285.556 0.00141579 
25664 285.556 0.00141579 
25736 285.556 0.00141579 
25808 285.556 0.00141579 
25880 285.556 0.00141579 
25952 285.556 0.00141579 
26024 285.556 0.00141579 
26096 285.556 0.00141579 
26168 285.556 0.00141579 
26240 285.556 0.00141579 
26312 285.556 0.00141579 
26384 285.556 0.00141579 
26456 285.556 0.00141579 
26528 285.556 0.00141579 
26600 285.556 0.00141579 
26672 285.556 0.00141579 
26744 285.556 0.00141579 
26816 285.556 0.00141579 
26888 285.556 0.00141579 
26960 285.556 0.00141579 
27032 285.556 0.00141579 
27104 285.556 0.00141579 
27176 285.556 0.00141579 
27248 285.556 0.00141579 
27320 285.556 0.00141579 
27392 285.556 0.00141579 
27464 285.556 0.00141579 
27536 285.556 0.00141579 
27608 285.556 0.00141579 
27680 285.556 0.00141579 
27752 285.556 0.00141579 
27824 285.556 0.00141579 
27896 285.556 0.00141579 
27968 285.556 0.00141579 
28040 285.556 0.00141579 
28112 285.556 0.00141579 
28184 285.556 0.00141579 
28256 285.556 0.00141579 
28328 285.556 0.00141579 
28400 285.556 0.00141579 
28472 285.556 0.00141579 
28544 285.556 0.00141579 
28616 285.556 0.00141579 
28688 285.556 0.00141579 
28760 285.556 0.00141579 
28832 285.556 0.00141579 
28904 285.556 0.00141579 
28976 285.556 0.00141579 
29048 285.556 0.00141579 
29120 285.556 0.00141579 
29192 285.556 0.00141579 
29264 285.556 0.00141579 
29336 285.556 0.00141579 
29408 285.556 0.00141579 
29480 285.556 0.00141579 
29552 285.556 0.00141579 
29624 285.556 0.00141579 
29696 285.556 0.00141579 
29768 285.556 0.00141579 
29840 285.556 0.00141579 
29912 285.556 0.00141579 
29984 285.556 0.00141579 
30056 285.556 0.00141579 