ITEM: TIMESTEP
330000
ITEM: NUMBER OF ATOMS
43272
ITEM: BOX BOUNDS pp pp pp
-1.5050000000000000e+02 1.5050000000000000e+02
-1.5050000000000000e+02 1.5050000000000000e+02
-1.5050000000000000e+02 1.5050000000000000e+02
ITEM: ATOMS id c_1 c_2 
21636 324.652 10463.3 
21634 311.052 10473.9 
35 471.671 18605.7 
21635 320.901 10540.7 
36 461.798 18617.2 
21633 309.949 10426.3 
34 467.432 18550.8 
21706 640.399 17467.9 
21707 630.778 17644.1 
108 485.403 14267.3 
21708 625.308 17616 
21632 310.139 10462.6 
33 450.249 18509.5 
21705 610.829 17601.3 
106 494.284 14339.9 
107 504.659 14181.5 
21779 530.09 11876.3 
21780 531.328 11954.6 
21631 308.268 10390.6 
32 461.716 18434.4 
21704 621.428 17479.3 
105 484.372 14355.7 
21777 526.016 11912.6 
21778 543.522 11797.3 
179 609.448 9719.24 
180 591.942 9667.13 
21703 623.884 17392.6 
104 493.297 14102.3 
21776 537.703 11853 
178 606.626 9749.94 
21850 758.092 7779.3 
21851 743.717 7727.4 
252 1041.92 6030.69 
21852 735.264 7832.66 
21630 306.682 10391.1 
31 454.924 18407.8 
177 605.183 9753.39 
21849 751.214 7751.73 
250 1077.21 6126.91 
21922 1615.14 4700.34 
251 1067.94 6158.37 
21923 1599.34 4675.12 
21924 1575.31 4780.85 
30 458.652 18517.8 
21702 619.422 17447.9 
103 489.517 14264.8 
21775 539.24 11770.3 
176 618.139 9605.99 
21848 766.371 7755.52 
249 1054.68 6086.34 
21921 1625.83 4686.63 
322 2427.75 3544.06 
323 2415.19 3564.07 
21995 3456.5 2654.06 
324 2417.1 3498.65 
21996 3434.08 2661.34 
21629 304.016 10423.3 
102 490.734 14244.2 
21774 536.65 11778.8 
175 605.5 9666.8 
21847 758.263 7733.58 
248 1087.32 6089.37 
21920 1629.98 4659.09 
321 2459.35 3499.87 
21993 3491.19 2638.21 
21994 3477.76 2629.89 
395 4686.66 1983.1 
8531 392.824 623.516 
8603 404.612 610.091 
8675 404.202 629.876 
8747 412.805 622.623 
8819 401.738 612.242 
8891 400.36 612.415 
8963 400.502 606.017 
9035 405.473 592.679 
9107 408.776 576.429 
9179 408.577 593.964 
9251 412.247 609.056 
9323 411.799 596.302 
9395 411.61 594.702 
9467 413.123 597.692 
9539 406.775 592.773 
9611 415.834 590.21 
9683 419.188 584.512 
9755 408.94 605.785 
9827 406.338 594.325 
9899 397.642 572.287 
29987 400.155 649.575 
30059 400.761 626.069 
30131 395.763 630.694 
30203 391.851 626.458 
30275 400.559 625.112 
30347 400.926 634.809 
30419 394.315 635.936 
30491 391.284 617.076 
30563 392.436 607.573 
30635 387.156 599.928 
30707 396.134 579.489 
30779 395.943 588.759 
30851 401.676 604.145 
30923 404.75 611.068 
30995 402.39 603.496 
31067 403.558 591.896 
31139 393.845 613.984 
31211 389.578 612.618 
31283 396.816 586.763 
31355 407.848 584.911 
31427 408.152 600.962 
31499 409.675 581.679 
8316 385.797 656.747 
8388 381.947 631.98 
8460 387.905 643.019 
8532 388.937 651.302 
8604 388.688 642.109 
8676 398.363 641.973 
8748 399.453 627.128 
8820 387.837 632.906 
31571 406.932 578.196 
31643 398.391 609.48 
31715 385.927 592.881 
31787 384.392 574.573 
31859 376.508 589.359 
396 4674.4 2013.4 
8892 387.146 626.903 
8964 376.687 625.579 
9036 387.849 613.425 
9108 387.491 581.397 
9180 389.384 599.022 
9252 389.719 597.511 
9324 389.931 588.82 
9396 381.959 612.803 
9468 384.187 624.292 
9540 379.676 605.358 
9612 392.142 591.755 
9684 393.582 612.599 
9756 400.508 618.349 
9828 407.512 592.219 
9900 405.216 601.483 
9972 404.218 590.187 
10044 396.232 584.618 
10116 385.018 574.899 
10188 377.067 586.1 
10260 375.022 612.93 
10332 379.854 604.803 
10404 381.801 600.349 
30060 367.51 651.122 
30132 379.628 655.527 
30204 383.949 663.431 
30276 387.888 645.006 
30348 386.19 634.483 
30420 388.531 631.147 
30492 388.043 625.799 
30564 385.816 644.173 
30636 382.44 644.531 
30708 386.196 619.231 
30780 387.035 599.671 
30852 384.459 620.18 
30924 389.529 613.218 
30996 375.503 576.149 
31068 380.357 594.243 
31140 371.474 629.736 
31212 374.548 615.79 
31284 379.221 617.755 
31356 386.884 616.456 
31428 391.264 600.871 
31500 390.259 608.008 
31572 390.664 608.211 
31644 382.577 585.493 
31716 400.309 595.942 
31788 388.921 604.051 
31860 386.854 577.567 
31932 389.737 600.796 
32004 382.372 623.596 
32076 383.264 596.079 
29 435.026 18350.8 
21701 614.451 17448.7 
21846 758.509 7749.95 
247 1092.53 6043.35 
21919 1666.49 4633.77 
320 2472.41 3512.99 
21992 3522.75 2607.22 
8385 408.534 596.15 
8457 407.499 578.016 
8529 395.778 616.782 
8601 408.809 611.063 
8673 406.356 584.04 
8745 412.16 611.697 
8817 420.161 622.764 
8889 423.832 583.249 
8961 422.423 574.832 
9033 422.585 584.216 
9105 419.768 573.821 
9177 409.432 586.709 
9249 407.209 606.058 
9321 409.411 596.116 
9393 411.985 581.28 
28905 390.218 646.572 
28977 387.229 639.906 
29049 397.277 656.512 
29121 403.952 655.793 
29193 403.753 636.089 
29265 412.121 661.578 
29337 412.793 656.093 
29409 424.97 616.648 
29481 420.29 618.617 
29553 420.068 621.771 
29625 423.436 624.804 
29697 414.274 633.167 
29769 414.886 635.997 
29841 406.824 615.094 
29913 400.027 597.072 
29985 405.601 616.803 
30057 414.274 620.841 
30129 408.901 610.403 
30201 407.731 600.461 
30273 410.207 597.522 
30345 412.907 605.012 
30417 425.706 607.754 
30489 423.417 596.698 
30561 430.128 578.44 
30633 420.03 582.623 
30705 422.209 591.159 
30777 414.081 580.99 
30849 414.297 581.499 
30921 421.422 602.064 
30993 416.687 587.636 
31065 421.936 588.884 
31137 410.7 600.801 
31209 410.703 577.335 
31281 401.327 584.642 
31353 403.332 582.72 
31425 401.027 603.24 
31497 395.766 633.656 
31569 398.604 602.898 
31641 396.395 584.335 
31713 388.365 594.914 
31785 389.796 592.028 
31857 385.633 575.22 
394 4660.54 1995.42 
6658 368.065 676.08 
6730 372.911 677.267 
6802 371.141 669.112 
6874 372.107 675.391 
6946 371.404 664.013 
7018 365.775 659.883 
7090 372.552 670.719 
7162 383.464 654.186 
7234 383.783 655.532 
7306 380.341 668.173 
7378 386.437 651.155 
7450 404.522 654.53 
7522 406.144 665.763 
7594 401.495 657.003 
7666 399.596 645.857 
7738 398.707 652.372 
7810 408.564 639.581 
7882 411.205 633.857 
7954 406.786 623.244 
8026 403.601 624.544 
8098 403.883 649.897 
8170 410.815 625.725 
8242 400.715 607.693 
8314 401.181 615.507 
8386 400.017 628.745 
8458 402.429 626.634 
8530 402.549 604.635 
8602 401.464 599.622 
8674 405.864 610.122 
8746 417.506 614.759 
8818 421.488 596.86 
8890 432.072 591.944 
8962 422.927 595.281 
9034 425.47 606.612 
9106 418.752 594.117 
9178 415.3 577.828 
9250 410.307 587.965 
9322 405.313 580.786 
9394 403.957 589.606 
9466 411.869 595.431 
9538 404.046 589.215 
9610 415.429 596.222 
9682 410.527 588.71 
9754 406.677 580.007 
9826 394.123 591.055 
27826 342.4 690.736 
27898 351.832 687.815 
27970 359.418 684.263 
28042 371.26 692.66 
28114 364.747 686.411 
28186 366.009 673.387 
28258 356.345 693.465 
28330 357.232 702.061 
28402 360.604 681.541 
28474 362.668 692.846 
28546 371.124 690.115 
28618 370.335 678.032 
28690 383.018 663.434 
28762 383.355 637.377 
28834 389.462 688.401 
28906 381.825 692.53 
28978 372.234 656.27 
29050 383.476 686.877 
29122 393.159 666.234 
29194 386.144 657.801 
29266 389.801 666.507 
29338 387.584 661.768 
29410 383.354 632.975 
29482 390.915 632.959 
29554 393.959 667.329 
29626 399.053 645.805 
29698 400.179 636.024 
29770 399 640.906 
29842 394.568 635.808 
29914 396.445 631.214 
29986 403.34 640.861 
30058 411.783 625.841 
30130 412.27 605.29 
30202 397.275 609.551 
30274 409.626 609.431 
30346 411.732 618.118 
30418 409.641 606.775 
30490 413.539 601.183 
30562 411.842 607.231 
30634 418.618 605.169 
9898 382.987 596.899 
9970 387.298 609.596 
10042 388.922 604.247 
10114 384.754 567.41 
10186 391.398 573.998 
10258 381.494 596.982 
10330 383.034 602.468 
10402 374.458 600.984 
10474 370.109 610.15 
10546 359.471 633.942 
10618 350.492 615.839 
10690 347.085 607.778 
22066 5910.42 1595.71 
23218 914.743 1205.8 
23290 857.939 1277.87 
23362 776.242 1330.05 
23434 658.543 1291.74 
30706 416.822 602.84 
30778 418.497 589.524 
30850 413.289 587.99 
30922 414.777 588.77 
30994 410.313 586.048 
31066 419.869 587.206 
31138 412.022 588.43 
31210 415.998 607.694 
31282 419.622 601.567 
31354 407.288 585.537 
31426 400.601 587.917 
31498 393.352 579.482 
31570 393.125 585.314 
31642 389.332 586.574 
31714 387.401 585.685 
31786 384.896 582.704 
31858 386.385 588.918 
31930 381.652 609.431 
32002 379.459 598.543 
32074 370.216 610.756 
32146 368.906 625.185 
32218 361.914 614.246 
32290 356.842 603.168 
32362 348.977 611.996 
32434 346.583 625.924 
32506 336.827 641.195 
32578 330.285 656.599 
32650 322.212 649.373 
5939 328.851 734.72 
6011 335.242 726.908 
6083 338.232 737.23 
6155 345.619 717.775 
6227 344.937 716.16 
6299 345.306 717.323 
6371 347.45 688.631 
6443 353.149 690.711 
6515 354.567 717.378 
6587 340.151 727.261 
6659 345.574 703.639 
6731 350.346 686.637 
6803 361.838 690.801 
6875 357.558 704.39 
6947 362.787 695.064 
7019 358.813 686.809 
7091 361.947 689.602 
7163 365.661 675.517 
7235 372.475 685.064 
7307 367.86 676.25 
7379 372.089 681.52 
7451 385.507 693.965 
7523 386.716 668.073 
7595 387.439 666.575 
7667 382.374 664.513 
7739 372.799 666.914 
7811 375.11 661.477 
7883 380.4 664.734 
7955 383.834 664.79 
8027 384.667 646.123 
8099 391.251 645.89 
8171 392.014 646.246 
8243 396.777 645.09 
8315 390.264 653.84 
8387 398.242 633.602 
8459 403.67 622.073 
9971 398.984 574.812 
10043 385.98 595.391 
10115 391.578 587.333 
10187 372.452 592.497 
10259 372.797 623.465 
10331 379.173 594.061 
10403 369.641 587.931 
10475 367.856 614.351 
10547 365.69 607.624 
10619 360.154 610.701 
1475 843.456 981.232 
1547 881.032 1126.29 
1619 866.206 1230.67 
1691 805.657 1301.25 
1763 715.484 1320.65 
1835 608.441 1288.75 
1907 497.869 1223.28 
27323 326.905 793.064 
27395 334.903 767 
27467 327.359 735.794 
27539 328.9 755.947 
27611 327.598 771.344 
27683 330.358 734.398 
27755 322.586 721.969 
27827 326.057 722.693 
27899 331.949 725.503 
27971 333.866 736.397 
28043 335.494 743.183 
28115 344.61 734.569 
28187 340.498 718.693 
28259 340.905 712.557 
28331 343.241 705.064 
28403 348.169 698.891 
28475 351.467 715.841 
28547 347.764 712.535 
28619 354.282 696.391 
28691 350.43 690.945 
28763 364.53 702.873 
28835 357.498 701.099 
28907 357.79 688.393 
28979 359.449 682.508 
29051 361.734 696.007 
29123 367.616 704.898 
29195 365.863 681.317 
29267 373.661 671.307 
29339 367.795 674.448 
29411 366.999 662.9 
29483 367.935 673 
29555 375.048 673.423 
29627 382.704 671.056 
29699 378.859 679.662 
29771 385.827 658.047 
29843 387.95 652.024 
29915 390.236 664.005 
10691 363.585 609.161 
10763 355.644 613.996 
10835 347.942 650.516 
10907 347.663 645.801 
10979 331.124 628.491 
11051 323.167 657.491 
11123 317.04 669.755 
11195 304.212 675.209 
22067 5937.16 1586.58 
23075 795.235 907.032 
23147 868.16 1035.69 
23219 874.333 1175.93 
23291 844.9 1255.77 
23363 762.298 1324.83 
23435 664.22 1304.41 
23507 550.027 1240.99 
23579 457.233 1186.06 
5940 321.525 787.608 
6012 323.919 774.399 
6084 322.71 750.91 
6156 325.15 741.512 
6228 322.988 740.363 
6300 324.138 728.815 
6372 317.298 740.719 
6444 327.688 768.276 
6516 324.262 739.631 
6588 328.007 726.062 
6660 331.578 727.632 
6732 335.27 701.721 
6804 344.177 719.119 
6876 340.314 736.563 
6948 339.429 709.948 
7020 336.43 711.856 
7092 336.942 714.598 
7164 329.701 711.388 
7236 333.956 716.562 
7308 338.287 694.676 
7380 340.315 718.039 
7452 343.722 730.329 
7524 350.769 695.468 
7596 351.577 671.706 
7668 360.108 673.877 
7740 350.398 683.5 
7812 361.442 699.249 
7884 366.967 705.662 
7956 367.717 682.033 
8028 366.042 662.881 
8100 366.245 667.598 
8172 378.13 675.106 
8244 378.318 676.845 
31931 380.418 608.767 
32003 387.036 605.561 
32075 379.579 586.056 
32147 382.082 596.055 
32219 367.956 608.845 
32291 362.693 613.925 
32363 360.333 624.563 
32435 349.175 619.555 
32507 348.575 631.251 
32579 341.808 653.511 
32651 334.283 636.658 
32723 337.075 649.063 
32795 323.651 679.175 
32867 325.807 699.597 
32939 320.786 742.674 
33011 302.895 752.852 
468 7071.08 1410.06 
1404 740.226 840.918 
1476 822.391 974.536 
1548 867.589 1093.33 
1620 859.147 1222.92 
1692 811.829 1282.28 
1764 715.626 1276.5 
5652 317.672 783.742 
5724 324.522 776.858 
5796 322.376 766.932 
5868 328.069 767.1 
10476 383.603 586.594 
10548 376.409 592.646 
10620 374.744 599.825 
10692 363.761 609.741 
10764 366.631 633.975 
10836 360.346 627.889 
10908 361.86 637.629 
10980 361.797 658.102 
11052 349.97 642.286 
11124 345.555 646.368 
11196 335.147 694.045 
11268 330.777 711.294 
22068 5920.51 1594.98 
1836 612.165 1238.01 
1908 503.334 1192.46 
1980 419.63 1113.05 
27324 321.667 779.832 
27396 323.675 775.954 
27468 316.626 788.426 
27540 318.096 771.357 
27612 319.928 782.874 
27684 320.922 790.515 
27756 319.72 763.593 
27828 315.974 758.078 
27900 314.539 764.264 
27972 315.943 757.849 
28044 318.873 744.937 
28116 321.946 749.194 
28188 328.929 750.237 
28260 322.898 742.443 
28332 329.863 718.506 
28404 336.95 728.386 
28476 331.895 751.174 
28548 326.511 732.889 
28620 324.492 716.199 
28692 331.998 719.882 
28764 333.195 733.359 
28836 332.956 745.914 
28908 322.088 741.332 
28980 316.503 706.053 
29052 325.07 719.464 
29124 325.088 725.354 
29196 324.467 707.268 
29268 338.416 690.764 
29340 336.925 693.838 
29412 337.146 721.378 
29484 349.847 711.882 
29556 352.137 695.057 
29628 348.129 684.837 
29700 356.529 664.545 
29772 356.407 672.407 
29844 364.769 690.155 
29916 366.379 674.765 
29988 365.883 655.664 
32148 378.391 589.575 
11340 317.841 725.314 
11412 311.399 736.904 
11484 316.009 726.274 
21628 283.628 10427.6 
101 487.547 14099.4 
21773 549.019 11827.5 
174 618.067 9650.18 
319 2473.25 3519.59 
21991 3545.04 2610.02 
7736 402.387 599.729 
7808 398.71 615.856 
7880 402.626 623.651 
7952 392.291 606.654 
8024 399.546 634.584 
8096 413.028 623.413 
8168 411.583 600.871 
8240 413.444 598.971 
8312 411.964 587.743 
8384 426.868 584.712 
8456 419.56 579.128 
8528 416.699 582.932 
8600 419.106 596.047 
8672 414.786 606.484 
8744 409.997 612.576 
8816 409.066 606.279 
8888 403.903 586.286 
8960 402.175 594.743 
9032 414.868 591.101 
9104 424.903 587.631 
9176 423.975 594.351 
9248 415.959 581.308 
9320 408.894 575.935 
9392 405.698 591.871 
9464 411.464 604.302 
9536 409.165 597.423 
28112 381.185 644.019 
28184 385.417 651.446 
28256 389.89 627.883 
28328 399.49 618.68 
28400 402.446 625.553 
28472 401.19 613.98 
28544 395.804 606.699 
28616 401.406 623.238 
28688 405.585 638.019 
28760 406.07 630.569 
28832 414.181 627.727 
28904 407.756 622.093 
28976 405.424 611.579 
29048 406.108 617.737 
29120 410.096 636.274 
29192 414.179 645.52 
29264 408.954 629.933 
29336 415.545 617.333 
29408 406.881 619.379 
29480 410.261 623.13 
29552 401.007 609.772 
29624 402.69 617.948 
29696 415.225 624.741 
29768 412.933 632.476 
29840 401.81 632.902 
29912 407.781 583.299 
29984 416.414 565.988 
30056 422.715 576.578 
30128 426.491 582.875 
30200 422.131 609.117 
30272 423.057 617.6 
30344 410.528 606.971 
30416 413.17 619.608 
30488 414.13 602.319 
30560 415.176 569.968 
30632 418.881 577.454 
30704 426.12 599.565 
30776 423.115 596.969 
30848 423.136 581.082 
30920 419.889 585.844 
30992 420.622 582.375 
31064 422.633 590.735 
31136 425.79 597.831 
31208 417.03 603.238 
5865 343.66 700.604 
5937 344.737 715.374 
6009 354.243 704.645 
6081 358.724 689.458 
6153 357.915 684.267 
6225 363.005 663.758 
6297 368.992 670.271 
6369 373.236 672.637 
6441 379.446 659.77 
6513 378.993 662.402 
6585 381.058 646.712 
6657 390.725 630.938 
6729 396.433 627.235 
6801 398.452 644.259 
6873 389.096 636.406 
6945 383.706 638.462 
7017 383.722 653.02 
7089 382.329 630.866 
7161 393.499 624.788 
7233 398.941 635.029 
7305 397.042 641.583 
7377 398.029 633.482 
7449 410.145 639.139 
7521 410.271 632.898 
7593 415.352 651.97 
7665 413.904 647.693 
7737 416.696 624.018 
7809 419.896 620.197 
7881 415.639 592.606 
7953 408.402 604.747 
8025 403.945 626.931 
8097 414.367 648.402 
8169 414.611 632.799 
8241 414.513 595.424 
8313 403.924 608.831 
31280 408.989 597.667 
31352 408.509 586.036 
31424 401.733 596.051 
31496 393.209 591.252 
31568 394.634 607.662 
31640 391.664 626.498 
31712 391.993 582.355 
31784 385.446 585.853 
31856 383.673 615.511 
31928 372.961 603.695 
32000 369.463 608.172 
32072 373.046 614.21 
393 4696.59 1993.81 
1617 915.613 1284.56 
1689 840.726 1328.7 
5793 348.321 698.897 
9465 416.497 595.211 
9537 417.793 596.196 
9609 410.482 598.151 
9681 415.337 573.327 
9753 404.91 590.74 
9825 396.577 616.728 
9897 389.511 594.096 
9969 398.762 605.803 
10041 388.761 598.057 
10113 390.616 573.993 
10185 384.47 593.677 
10257 378.229 607.803 
10329 377.439 606.645 
10401 380.501 603.309 
10473 377.975 614.696 
10545 366.176 642.742 
10617 345.932 612.594 
10689 342.967 615.914 
10761 338.042 658.757 
10833 336.584 657.657 
10905 333.322 651.393 
22065 5903.51 1588.92 
23145 924.928 1066.28 
23217 924.501 1212.38 
26961 313.082 721.836 
27033 319.911 729.596 
27105 314.738 723.207 
27177 311.923 723.623 
27249 320.592 746.027 
27321 329.132 724.905 
27393 345.832 717.253 
27465 351.289 721.534 
27537 350.674 706.301 
27609 354.221 709.268 
27681 354.471 700.571 
27753 348.002 686.159 
27825 351.715 683.857 
27897 356.836 684.131 
27969 364.2 687.075 
28041 370.753 666.838 
28113 369.148 654.232 
28185 374.525 661.864 
28257 376.302 664.911 
28329 384.777 661.688 
28401 380.006 647.332 
28473 382.552 655.653 
28545 382.946 657.03 
28617 390.797 655.104 
28689 378.155 652.282 
28761 391.438 630.952 
28833 388.965 640.027 
31929 380.835 571.266 
32001 383.669 599.432 
32073 375.883 629.608 
32145 375.191 618.445 
23073 852.33 905.336 
23289 876.275 1311.64 
23361 781.385 1341.05 
23433 664.514 1309.64 
23505 537.293 1280.85 
5146 300.358 752.668 
5218 298.496 729.972 
5290 305.995 720.421 
5362 314.404 749.14 
5434 320.858 740.015 
5506 320.741 721.428 
5578 327.506 720.575 
5650 331.788 748.515 
5722 347.389 770.997 
5794 342.393 751.081 
5866 340.885 720.183 
5938 333.849 718.745 
6010 345.3 732.602 
6082 341.597 699.038 
6154 349.13 682.493 
6226 350.565 701.588 
6298 352.957 686.494 
6370 358.124 678.328 
6442 369.634 681.117 
6514 367.68 662.103 
6586 370.598 657.309 
32217 357.666 614.361 
32289 346.599 624.798 
32361 349.365 638.147 
32433 347.192 636.793 
32505 345.752 648.5 
32577 336.554 659.831 
32649 329.443 667.885 
32721 337.549 689.576 
32793 328.514 712.969 
32865 321.795 721.149 
466 7004.85 1379.66 
1402 786.517 829.124 
1474 882.607 982.768 
1546 914.638 1144.05 
1618 897.366 1283.39 
1690 825.069 1311.42 
1762 722.124 1307.14 
1834 601.004 1290.55 
1906 489.657 1233.39 
1978 392.201 1145.95 
4858 300.081 758.215 
4930 295.035 740.29 
5002 296.065 742.347 
5074 293.803 742.404 
27466 332.369 747.694 
27538 322.561 745.777 
27610 340.077 723.532 
27682 342.047 729.244 
27754 335.444 723.029 
10762 347.516 634.332 
10834 346.338 644.936 
10906 342.596 638.765 
10978 337.919 646.312 
11050 329.172 676.303 
11122 323.11 691.026 
11194 313.932 708.274 
11266 315.276 724.385 
11338 309.065 729.511 
11410 294.521 749.385 
11482 297.34 788.344 
22138 7784.61 1323.13 
23002 720.882 746.528 
23074 832.034 884.775 
23146 888.832 1072.73 
23506 541.655 1236.89 
25594 296.15 889.701 
25666 291.773 861.059 
25738 292.604 853.329 
25810 288.442 821.772 
25882 286.787 802.19 
25954 282.62 813.254 
26026 274.201 782.541 
26098 277.335 786.397 
26170 279.999 767.158 
26242 284.601 758.984 
26314 286.983 783.44 
26386 286.769 771.069 
26458 294.046 759.912 
26530 290.356 746.299 
26602 290.389 753.802 
26674 288.76 758.013 
26746 302.127 738.443 
26818 303.589 747.96 
26890 301.967 737.741 
26962 305.099 750.929 
27034 309.869 755.561 
27106 316.696 723.255 
27178 313.138 733.413 
27250 319.359 772.463 
27322 329.996 775.505 
27394 328.649 751.166 
32722 318.851 663.018 
32794 318.821 687.582 
32866 310.299 708.356 
32938 314.203 747.493 
467 7034.74 1375.22 
23578 442.578 1173.99 
23650 358.54 1123.87 
23722 290.548 1027.02 
25450 303.954 908.821 
25522 295.772 891.129 
4499 273.151 778.692 
4571 281.269 771.873 
4643 288.154 782.999 
4715 286.896 772.386 
4787 289.647 752.026 
4859 286.679 756.257 
4931 283.542 750.275 
5003 286.942 748.827 
5075 296.615 773.352 
5147 304.025 774.724 
5219 300.789 764.056 
5291 297.618 754.219 
5363 301.579 743.291 
5435 314.002 727.531 
5507 310.498 753.158 
5579 319.097 779.232 
5651 323.07 786.643 
5723 320.747 785.278 
5795 327.288 745.133 
5867 320.989 738.045 
33010 306.606 752.595 
33082 295.901 747.562 
33154 292.821 768.129 
33226 276.461 787.288 
33298 278.874 792.376 
33370 262.328 798.876 
1331 638.508 713.721 
1403 757.218 805.665 
1979 408.231 1144.09 
2051 325.612 1055.47 
2123 275.927 988.931 
2195 246.608 934.399 
3491 300.976 901.987 
3563 315.431 895.563 
3635 313.09 896.738 
3707 320.653 899.62 
3779 309.902 903.892 
3851 300.291 880.098 
3923 303.126 880.299 
3995 296.891 901.178 
4067 298.389 845.597 
4139 296.247 829.224 
4211 284.107 821.717 
4283 279.62 785.929 
4355 272.224 801.626 
4427 274.652 794.752 
26819 304.394 784.928 
26891 310.678 771.347 
26963 305.827 769.305 
27035 313.458 741.545 
27107 307.242 743.06 
27179 315.404 769.719 
27251 316.366 792.72 
11267 310.829 716.545 
11339 305.622 766.575 
11411 306.747 767.86 
11483 300.206 738.911 
11555 295.181 745.041 
11627 275.438 793.624 
11699 270.077 803.647 
11771 263.973 773.182 
11843 255.423 804.269 
22139 7828.03 1300.92 
22931 552.62 643.768 
23003 696.305 767.906 
23651 369.187 1088.92 
23723 309.684 996.361 
25091 302.358 872.189 
25163 317.552 891.39 
25235 319.225 891.519 
25307 316.201 893.038 
25379 310.575 878.976 
25451 302.682 875.271 
25523 306.285 914.496 
25595 305.577 889.911 
25667 301.267 846.194 
25739 301.513 827.316 
25811 288.962 804.73 
25883 285.355 812.682 
25955 280.494 811.679 
26027 278.063 803.89 
26099 276.796 779.039 
26171 277.174 765.352 
26243 278.917 786.203 
26315 280.218 779.203 
26387 286.785 757.563 
26459 291.564 759.545 
26531 290.887 761.17 
26603 295.979 754.623 
26675 299.524 756.55 
26747 305.536 787.924 
33083 301.427 747.564 
33155 297.277 734.799 
33227 291.82 751.57 
33299 279.381 787.385 
33371 267.114 801.252 
33443 260.122 796.372 
33515 259.809 802.281 
1260 485.68 621.146 
1332 618.316 709.74 
23795 261.864 960.943 
23867 235.163 885.523 
25019 286.658 878.633 
3996 299.557 837.948 
4068 296.971 815.07 
4140 292.493 823.948 
4212 286.257 822.105 
4284 280.27 815.524 
4356 277.062 804.775 
4428 278.345 792.209 
4500 277.962 766.182 
4572 274.444 771.81 
4644 275.388 774.214 
4716 279.991 769.651 
4788 280.696 781.436 
4860 281.344 790.366 
4932 291.656 760.71 
5004 297.08 740.252 
5076 300.554 771.615 
5148 302.906 779.074 
5220 305.554 797.399 
5292 312.294 795.985 
5364 310.207 742.11 
5436 314.343 752.559 
5508 319.122 776.839 
5580 319.287 783.683 
33587 248.338 837.164 
22140 7829.01 1360.34 
2052 347.733 1042.15 
2124 294.2 989.191 
2196 253.569 897.429 
2268 234.268 846.298 
2340 223.965 827.764 
3204 251.425 819.186 
3276 274.625 832.182 
3348 290.122 846.208 
3420 309.486 870.401 
3492 330.792 872.932 
3564 336.348 873.868 
3636 336.214 894.17 
3708 328.07 898.556 
3780 316.699 900.39 
3852 311.063 865.825 
3924 302.091 858.293 
26244 276.834 765.14 
26316 281.958 768.434 
26388 285.03 769.592 
26460 287.661 782.115 
26532 283.948 783.768 
26604 293.967 762.81 
26676 292.382 760.221 
26748 291.112 777.53 
26820 293.021 790.971 
26892 303.135 798.947 
26964 314.07 772.9 
27036 310.876 764.257 
27108 309.654 776.353 
27180 315.167 795.012 
27252 321.364 801.84 
11556 304.322 751.739 
11628 297.21 782.087 
11700 278.859 797.9 
11772 273.151 798.901 
11844 273.608 796.426 
11916 262.082 800.434 
11988 241.97 824.568 
28 445.96 18516 
21700 618.916 17293.5 
173 601.38 9556.39 
21845 762.361 7721.6 
246 1099.44 6036.2 
21918 1656.21 4626.79 
8455 424.381 590.552 
8527 424.284 603.423 
8599 423.33 590.094 
28039 385.289 625.652 
28111 398.364 608.91 
28183 403.258 614.566 
28255 399.805 629.502 
28327 406.257 609.54 
28399 404.945 598.758 
28471 407.924 624.981 
28543 407.341 607.036 
28615 415.666 574.606 
28687 407.06 611.07 
28759 418.05 634.824 
28831 424.23 605.782 
28903 428.738 594.005 
28975 419.476 609.574 
29047 411.014 607.349 
29119 415.357 608.23 
29191 419.337 616.299 
29263 412.996 614.465 
29335 408.908 613.519 
29407 412.739 617.629 
29479 410.419 602.89 
29551 406.296 598.16 
29623 413.387 607.746 
29695 419.036 605.76 
29767 424.043 615.239 
29839 414.769 611.206 
29911 417.314 579.819 
29983 427.134 573.195 
30055 436.282 590.393 
30127 426.841 600.457 
30199 428.161 589.684 
30271 426.744 593.95 
30343 417.004 593.461 
30415 419.029 600.973 
30487 417.009 609.727 
30559 408.465 595.247 
30631 410.251 585.617 
30703 416.162 586.441 
30775 429.276 607.956 
30847 420.955 589.274 
30919 414.66 585.815 
30991 405.746 598.493 
31063 412.765 600.627 
31135 404.245 607.589 
31207 401.557 609.267 
31279 390.988 615.294 
31351 392.954 603.269 
31423 383.36 603.761 
31495 384.402 607.142 
31567 376.112 616.052 
31639 368.105 625.487 
31711 363.797 595.688 
31783 363.551 614.794 
31855 364.401 637.637 
392 4763.7 1983.43 
5576 335.279 677.91 
5648 331.622 693.26 
5720 345.677 678.564 
5792 346.299 699.944 
5864 353.106 708.7 
5936 346.256 681.283 
6008 356.205 655.312 
6080 361.728 662.398 
6152 372.742 676.853 
6224 368.619 655.277 
6296 382.638 662.379 
6368 384.309 646.773 
6440 394.46 627.923 
6512 398.93 622.698 
6584 395.585 621.816 
6656 397.345 644.184 
6728 406.656 618.78 
6800 405.45 608.245 
6872 399.679 604.641 
6944 397.957 591.157 
7016 407.215 615.105 
7088 412.549 625.681 
7160 426.826 627.708 
7232 424.972 621.457 
7304 420.27 604.064 
7376 413.124 605.744 
7448 412.956 623.572 
7520 425.082 632.397 
7592 419.082 627.044 
7664 411.853 617.017 
9608 408.313 618.905 
9680 406.614 610.169 
9752 402.76 584.101 
9824 390.253 580.725 
9896 388.933 601.706 
9968 382.939 624.668 
10040 387.452 607.04 
10112 382.673 602.004 
1616 919.521 1282.33 
1688 854.751 1344.1 
26888 305.085 734.04 
26960 318.369 729.614 
27032 320.559 718.915 
27104 318.407 727.646 
27176 322.801 694.039 
27248 318.09 677.762 
27320 331.299 682.166 
27392 337.628 697.294 
27464 349.68 729.371 
27536 352.037 700.153 
27608 355.405 673.045 
27680 363.329 668.579 
27752 369.047 681.663 
27824 373.725 676.793 
27896 375.497 657.031 
27968 378.469 667.207 
28040 385.321 653.34 
10184 384.49 614.488 
10256 372.174 607.962 
10328 362.191 615.902 
10400 361.911 626.623 
10472 363.145 648.162 
10544 348.085 662.123 
10616 337.529 629.242 
10688 337.44 637.571 
10760 337.299 649.408 
10832 332.404 653.127 
10904 325.761 681.463 
22064 5966.5 1575.38 
23072 857.15 902.773 
23144 937.496 1096.06 
23216 933.536 1225.33 
23288 902.473 1304.75 
23360 794.941 1360.51 
23432 680.147 1329.94 
23504 534.217 1273.31 
26672 299.217 710.302 
26744 311.358 718.563 
26816 306.543 731.4 
32144 373.886 638.544 
32216 349.995 632.127 
32288 347.236 618.159 
32360 342.419 660.715 
32432 337.882 664.901 
32504 329.823 644.656 
32576 314.304 667.822 
32648 304.363 717.169 
32720 312.128 724.797 
32792 317.046 708.62 
32864 306.785 730.699 
32936 297.403 746.403 
465 7017.26 1377.51 
1329 667.092 686.379 
1401 807.786 824.408 
1473 900.064 1003.77 
1545 941.29 1173.85 
1761 737.237 1331.21 
1833 606.631 1309.55 
1905 485.403 1262.86 
3993 290.426 878.421 
4065 286.1 890.802 
4137 279.906 848.868 
4209 278.503 795.266 
4281 275.451 818.344 
4353 271.87 818.449 
4425 271.393 787.816 
4497 267.882 789.238 
4569 264.229 768.949 
4641 268.162 739.446 
4713 272.162 746.322 
4785 278.49 750.192 
4857 290.58 724.751 
4929 291.353 717.595 
5001 302.488 717.461 
5073 300.495 727.075 
5145 307.042 749.183 
5217 305.995 736.128 
5289 312.842 723.339 
5361 318.094 729.476 
5433 326.144 720.484 
5505 321.431 719.731 
5577 319.766 721.122 
5649 329.97 704.045 
5721 337.236 692.793 
10977 332.15 676.023 
11049 328.468 701.191 
11121 325.71 714.394 
1977 383.163 1179.16 
2049 309.234 1055.54 
26169 267.958 787.492 
26241 273.387 760.216 
26313 274.904 727.844 
26385 272.842 746.608 
26457 287.491 763.188 
26529 295.57 737.207 
26601 301.879 743.893 
26673 308.012 737.959 
26745 310.018 738.612 
26817 308.355 739.479 
26889 307.739 727.392 
11193 315.49 714.945 
11265 309.782 724.71 
11337 293.935 764.03 
11409 281.429 770.311 
11481 276.335 777.441 
11553 269.209 806.575 
11625 260.721 793.909 
22137 7785.44 1344.58 
22857 445.071 629.115 
22929 596.096 655.544 
23001 744.564 746.843 
23577 430.017 1202.88 
23649 344.519 1113.22 
23721 275.903 993.556 
23793 230.682 935.637 
25161 289.662 954.842 
25233 300.124 930.178 
25305 304.327 930.128 
25377 300.175 932.019 
25449 297.787 927.184 
25521 298.846 911.214 
25593 292.542 892.854 
25665 283.286 868.507 
25737 285.121 851.227 
25809 278.424 850.213 
25881 281.831 800.732 
25953 277.689 780.284 
26025 277.567 797.332 
26097 275.929 796.235 
32937 310.325 734.875 
33009 293.524 746.926 
33081 288.649 774.039 
33153 282.149 801.93 
33225 274.996 792.707 
33297 271.534 802.528 
33369 258.618 804.745 
33441 241.318 817.709 
33513 223.957 829.724 
538 8144.82 1358.37 
1186 392.767 646.381 
1258 516.45 616.567 
1330 672.691 682.302 
2050 316.819 1046.83 
2122 253.986 980.015 
3490 294.345 935.163 
3562 293.213 929.82 
3634 304.565 910.964 
3706 303.27 921.13 
3778 298.081 918.417 
3850 302.323 907.01 
3922 292.652 899.372 
3994 291.043 863.988 
4066 285.882 857.392 
4138 285.554 843.301 
4210 280.825 811.36 
4282 283.297 811.577 
4354 277.265 813.845 
4426 273.684 777.643 
4498 266.92 771.445 
4570 269.688 770.17 
4642 277.877 755.81 
4714 279.436 750.75 
4786 286.714 771.096 
11554 277.633 791.925 
11626 275.766 788.136 
11698 266.686 800.586 
11770 258.417 797.602 
11842 242.062 815.315 
11914 231.425 850.783 
22210 8024.83 1481.2 
22786 357.709 693.885 
22858 440.304 650.819 
22930 583.181 670.382 
2194 224.543 924.177 
2266 210.89 889.238 
3274 238.796 876.949 
3346 260.812 914.847 
3418 276.056 916.385 
11986 213.24 883.785 