LAMMPS data file, version 2016-ICMS, timestep = unkown

43272 atoms
129528 bonds
129240 angles

1 atom types

-150.5 150.5 xlo xhi
-150.5 150.5 ylo yhi
-150.5 150.5 zlo zhi

Masses

1 10.0

Atoms

1 0 1 -149.5 -0.8657506315838163 19.828949489201932
2 0 1 -149.5 -2.5906630096905676 19.678039210542046
3 0 1 -149.5 -4.295858878008487 19.377367171564998
4 0 1 -149.5 -5.968360666354235 18.92922166803815
5 0 1 -149.5 -7.595439626234342 18.337013357840977
6 0 1 -149.5 -9.16471270430696 17.605249303799248
7 0 1 -149.5 -10.66423678489497 16.739498672215433
8 0 1 -149.5 -12.082599584307712 15.746350348150406
9 0 1 -149.5 -13.409006505210762 14.633362790029663
10 0 1 -149.5 -14.633362790029665 13.40900650521076
11 0 1 -149.5 -15.746350348150408 12.082599584307706
12 0 1 -149.5 -16.739498672215436 10.664236784894966
13 0 1 -149.5 -17.605249303799244 9.164712704306964
14 0 1 -149.5 -18.337013357840977 7.595439626234342
15 0 1 -149.5 -18.929221668038146 5.968360666354239
16 0 1 -149.5 -19.377367171564998 4.295858878008479
17 0 1 -149.5 -19.678039210542046 2.5906630096905725
18 0 1 -149.5 -19.828949489201932 0.8657506315838127
19 0 1 -149.5 -19.828949489201932 -0.865750631583815
20 0 1 -149.5 -19.678039210542046 -2.590663009690566
21 0 1 -149.5 -19.377367171564998 -4.295858878008482
22 0 1 -149.5 -18.929221668038142 -5.968360666354243
23 0 1 -149.5 -18.337013357840977 -7.5954396262343415
24 0 1 -149.5 -17.605249303799248 -9.164712704306957
25 0 1 -149.5 -16.73949867221543 -10.664236784894971
26 0 1 -149.5 -15.746350348150411 -12.082599584307705
27 0 1 -149.5 -14.633362790029663 -13.40900650521076
28 0 1 -149.5 -13.40900650521076 -14.633362790029665
29 0 1 -149.5 -12.082599584307706 -15.746350348150408
30 0 1 -149.5 -10.66423678489497 -16.739498672215433
31 0 1 -149.5 -9.16471270430696 -17.605249303799248
32 0 1 -149.5 -7.595439626234341 -18.337013357840977
33 0 1 -149.5 -5.968360666354241 -18.929221668038146
34 0 1 -149.5 -4.295858878008481 -19.377367171564998
35 0 1 -149.5 -2.590663009690568 -19.678039210542046
36 0 1 -149.5 -0.8657506315838148 -19.828949489201932
37 0 1 -149.5 0.8657506315838148 -19.828949489201932
38 0 1 -149.5 2.590663009690568 -19.678039210542046
39 0 1 -149.5 4.295858878008481 -19.377367171564998
40 0 1 -149.5 5.968360666354241 -18.929221668038146
41 0 1 -149.5 7.595439626234341 -18.337013357840977
42 0 1 -149.5 9.16471270430696 -17.605249303799248
43 0 1 -149.5 10.66423678489497 -16.739498672215433
44 0 1 -149.5 12.082599584307706 -15.746350348150408
45 0 1 -149.5 13.40900650521076 -14.633362790029665
46 0 1 -149.5 14.633362790029663 -13.40900650521076
47 0 1 -149.5 15.746350348150411 -12.082599584307705
48 0 1 -149.5 16.73949867221543 -10.664236784894971
49 0 1 -149.5 17.605249303799248 -9.164712704306957
50 0 1 -149.5 18.337013357840977 -7.5954396262343415
51 0 1 -149.5 18.929221668038142 -5.968360666354243
52 0 1 -149.5 19.377367171564998 -4.295858878008482
53 0 1 -149.5 19.678039210542046 -2.590663009690566
54 0 1 -149.5 19.828949489201932 -0.865750631583815
55 0 1 -149.5 19.828949489201932 0.8657506315838127
56 0 1 -149.5 19.678039210542046 2.5906630096905725
57 0 1 -149.5 19.377367171564998 4.295858878008479
58 0 1 -149.5 18.929221668038146 5.968360666354239
59 0 1 -149.5 18.337013357840977 7.595439626234342
60 0 1 -149.5 17.605249303799244 9.164712704306964
61 0 1 -149.5 16.739498672215436 10.664236784894966
62 0 1 -149.5 15.746350348150408 12.082599584307706
63 0 1 -149.5 14.633362790029665 13.40900650521076
64 0 1 -149.5 13.409006505210762 14.633362790029663
65 0 1 -149.5 12.082599584307712 15.746350348150406
66 0 1 -149.5 10.66423678489497 16.739498672215433
67 0 1 -149.5 9.16471270430696 17.605249303799248
68 0 1 -149.5 7.595439626234342 18.337013357840977
69 0 1 -149.5 5.968360666354235 18.92922166803815
70 0 1 -149.5 4.295858878008487 19.377367171564998
71 0 1 -149.5 2.5906630096905676 19.678039210542046
72 0 1 -149.5 0.8657506315838163 19.828949489201932
73 0 1 -148.5 -0.8657506315838163 19.828949489201932
74 0 1 -148.5 -2.5906630096905676 19.678039210542046
75 0 1 -148.5 -4.295858878008487 19.377367171564998
76 0 1 -148.5 -5.968360666354235 18.92922166803815
77 0 1 -148.5 -7.595439626234342 18.337013357840977
78 0 1 -148.5 -9.16471270430696 17.605249303799248
79 0 1 -148.5 -10.66423678489497 16.739498672215433
80 0 1 -148.5 -12.082599584307712 15.746350348150406
81 0 1 -148.5 -13.409006505210762 14.633362790029663
82 0 1 -148.5 -14.633362790029665 13.40900650521076
83 0 1 -148.5 -15.746350348150408 12.082599584307706
84 0 1 -148.5 -16.739498672215436 10.664236784894966
85 0 1 -148.5 -17.605249303799244 9.164712704306964
86 0 1 -148.5 -18.337013357840977 7.595439626234342
87 0 1 -148.5 -18.929221668038146 5.968360666354239
88 0 1 -148.5 -19.377367171564998 4.295858878008479
89 0 1 -148.5 -19.678039210542046 2.5906630096905725
90 0 1 -148.5 -19.828949489201932 0.8657506315838127
91 0 1 -148.5 -19.828949489201932 -0.865750631583815
92 0 1 -148.5 -19.678039210542046 -2.590663009690566
93 0 1 -148.5 -19.377367171564998 -4.295858878008482
94 0 1 -148.5 -18.929221668038142 -5.968360666354243
95 0 1 -148.5 -18.337013357840977 -7.5954396262343415
96 0 1 -148.5 -17.605249303799248 -9.164712704306957
97 0 1 -148.5 -16.73949867221543 -10.664236784894971
98 0 1 -148.5 -15.746350348150411 -12.082599584307705
99 0 1 -148.5 -14.633362790029663 -13.40900650521076
100 0 1 -148.5 -13.40900650521076 -14.633362790029665
101 0 1 -148.5 -12.082599584307706 -15.746350348150408
102 0 1 -148.5 -10.66423678489497 -16.739498672215433
103 0 1 -148.5 -9.16471270430696 -17.605249303799248
104 0 1 -148.5 -7.595439626234341 -18.337013357840977
105 0 1 -148.5 -5.968360666354241 -18.929221668038146
106 0 1 -148.5 -4.295858878008481 -19.377367171564998
107 0 1 -148.5 -2.590663009690568 -19.678039210542046
108 0 1 -148.5 -0.8657506315838148 -19.828949489201932
109 0 1 -148.5 0.8657506315838148 -19.828949489201932
110 0 1 -148.5 2.590663009690568 -19.678039210542046
111 0 1 -148.5 4.295858878008481 -19.377367171564998
112 0 1 -148.5 5.968360666354241 -18.929221668038146
113 0 1 -148.5 7.595439626234341 -18.337013357840977
114 0 1 -148.5 9.16471270430696 -17.605249303799248
115 0 1 -148.5 10.66423678489497 -16.739498672215433
116 0 1 -148.5 12.082599584307706 -15.746350348150408
117 0 1 -148.5 13.40900650521076 -14.633362790029665
118 0 1 -148.5 14.633362790029663 -13.40900650521076
119 0 1 -148.5 15.746350348150411 -12.082599584307705
120 0 1 -148.5 16.73949867221543 -10.664236784894971
121 0 1 -148.5 17.605249303799248 -9.164712704306957
122 0 1 -148.5 18.337013357840977 -7.5954396262343415
123 0 1 -148.5 18.929221668038142 -5.968360666354243
124 0 1 -148.5 19.377367171564998 -4.295858878008482
125 0 1 -148.5 19.678039210542046 -2.590663009690566
126 0 1 -148.5 19.828949489201932 -0.865750631583815
127 0 1 -148.5 19.828949489201932 0.8657506315838127
128 0 1 -148.5 19.678039210542046 2.5906630096905725
129 0 1 -148.5 19.377367171564998 4.295858878008479
130 0 1 -148.5 18.929221668038146 5.968360666354239
131 0 1 -148.5 18.337013357840977 7.595439626234342
132 0 1 -148.5 17.605249303799244 9.164712704306964
133 0 1 -148.5 16.739498672215436 10.664236784894966
134 0 1 -148.5 15.746350348150408 12.082599584307706
135 0 1 -148.5 14.633362790029665 13.40900650521076
136 0 1 -148.5 13.409006505210762 14.633362790029663
137 0 1 -148.5 12.082599584307712 15.746350348150406
138 0 1 -148.5 10.66423678489497 16.739498672215433
139 0 1 -148.5 9.16471270430696 17.605249303799248
140 0 1 -148.5 7.595439626234342 18.337013357840977
141 0 1 -148.5 5.968360666354235 18.92922166803815
142 0 1 -148.5 4.295858878008487 19.377367171564998
143 0 1 -148.5 2.5906630096905676 19.678039210542046
144 0 1 -148.5 0.8657506315838163 19.828949489201932
145 0 1 -147.5 -0.8657506315838163 19.828949489201932
146 0 1 -147.5 -2.5906630096905676 19.678039210542046
147 0 1 -147.5 -4.295858878008487 19.377367171564998
148 0 1 -147.5 -5.968360666354235 18.92922166803815
149 0 1 -147.5 -7.595439626234342 18.337013357840977
150 0 1 -147.5 -9.16471270430696 17.605249303799248
151 0 1 -147.5 -10.66423678489497 16.739498672215433
152 0 1 -147.5 -12.082599584307712 15.746350348150406
153 0 1 -147.5 -13.409006505210762 14.633362790029663
154 0 1 -147.5 -14.633362790029665 13.40900650521076
155 0 1 -147.5 -15.746350348150408 12.082599584307706
156 0 1 -147.5 -16.739498672215436 10.664236784894966
157 0 1 -147.5 -17.605249303799244 9.164712704306964
158 0 1 -147.5 -18.337013357840977 7.595439626234342
159 0 1 -147.5 -18.929221668038146 5.968360666354239
160 0 1 -147.5 -19.377367171564998 4.295858878008479
161 0 1 -147.5 -19.678039210542046 2.5906630096905725
162 0 1 -147.5 -19.828949489201932 0.8657506315838127
163 0 1 -147.5 -19.828949489201932 -0.865750631583815
164 0 1 -147.5 -19.678039210542046 -2.590663009690566
165 0 1 -147.5 -19.377367171564998 -4.295858878008482
166 0 1 -147.5 -18.929221668038142 -5.968360666354243
167 0 1 -147.5 -18.337013357840977 -7.5954396262343415
168 0 1 -147.5 -17.605249303799248 -9.164712704306957
169 0 1 -147.5 -16.73949867221543 -10.664236784894971
170 0 1 -147.5 -15.746350348150411 -12.082599584307705
171 0 1 -147.5 -14.633362790029663 -13.40900650521076
172 0 1 -147.5 -13.40900650521076 -14.633362790029665
173 0 1 -147.5 -12.082599584307706 -15.746350348150408
174 0 1 -147.5 -10.66423678489497 -16.739498672215433
175 0 1 -147.5 -9.16471270430696 -17.605249303799248
176 0 1 -147.5 -7.595439626234341 -18.337013357840977
177 0 1 -147.5 -5.968360666354241 -18.929221668038146
178 0 1 -147.5 -4.295858878008481 -19.377367171564998
179 0 1 -147.5 -2.590663009690568 -19.678039210542046
180 0 1 -147.5 -0.8657506315838148 -19.828949489201932
181 0 1 -147.5 0.8657506315838148 -19.828949489201932
182 0 1 -147.5 2.590663009690568 -19.678039210542046
183 0 1 -147.5 4.295858878008481 -19.377367171564998
184 0 1 -147.5 5.968360666354241 -18.929221668038146
185 0 1 -147.5 7.595439626234341 -18.337013357840977
186 0 1 -147.5 9.16471270430696 -17.605249303799248
187 0 1 -147.5 10.66423678489497 -16.739498672215433
188 0 1 -147.5 12.082599584307706 -15.746350348150408
189 0 1 -147.5 13.40900650521076 -14.633362790029665
190 0 1 -147.5 14.633362790029663 -13.40900650521076
191 0 1 -147.5 15.746350348150411 -12.082599584307705
192 0 1 -147.5 16.73949867221543 -10.664236784894971
193 0 1 -147.5 17.605249303799248 -9.164712704306957
194 0 1 -147.5 18.337013357840977 -7.5954396262343415
195 0 1 -147.5 18.929221668038142 -5.968360666354243
196 0 1 -147.5 19.377367171564998 -4.295858878008482
197 0 1 -147.5 19.678039210542046 -2.590663009690566
198 0 1 -147.5 19.828949489201932 -0.865750631583815
199 0 1 -147.5 19.828949489201932 0.8657506315838127
200 0 1 -147.5 19.678039210542046 2.5906630096905725
201 0 1 -147.5 19.377367171564998 4.295858878008479
202 0 1 -147.5 18.929221668038146 5.968360666354239
203 0 1 -147.5 18.337013357840977 7.595439626234342
204 0 1 -147.5 17.605249303799244 9.164712704306964
205 0 1 -147.5 16.739498672215436 10.664236784894966
206 0 1 -147.5 15.746350348150408 12.082599584307706
207 0 1 -147.5 14.633362790029665 13.40900650521076
208 0 1 -147.5 13.409006505210762 14.633362790029663
209 0 1 -147.5 12.082599584307712 15.746350348150406
210 0 1 -147.5 10.66423678489497 16.739498672215433
211 0 1 -147.5 9.16471270430696 17.605249303799248
212 0 1 -147.5 7.595439626234342 18.337013357840977
213 0 1 -147.5 5.968360666354235 18.92922166803815
214 0 1 -147.5 4.295858878008487 19.377367171564998
215 0 1 -147.5 2.5906630096905676 19.678039210542046
216 0 1 -147.5 0.8657506315838163 19.828949489201932
217 0 1 -146.5 -0.8657506315838163 19.828949489201932
218 0 1 -146.5 -2.5906630096905676 19.678039210542046
219 0 1 -146.5 -4.295858878008487 19.377367171564998
220 0 1 -146.5 -5.968360666354235 18.92922166803815
221 0 1 -146.5 -7.595439626234342 18.337013357840977
222 0 1 -146.5 -9.16471270430696 17.605249303799248
223 0 1 -146.5 -10.66423678489497 16.739498672215433
224 0 1 -146.5 -12.082599584307712 15.746350348150406
225 0 1 -146.5 -13.409006505210762 14.633362790029663
226 0 1 -146.5 -14.633362790029665 13.40900650521076
227 0 1 -146.5 -15.746350348150408 12.082599584307706
228 0 1 -146.5 -16.739498672215436 10.664236784894966
229 0 1 -146.5 -17.605249303799244 9.164712704306964
230 0 1 -146.5 -18.337013357840977 7.595439626234342
231 0 1 -146.5 -18.929221668038146 5.968360666354239
232 0 1 -146.5 -19.377367171564998 4.295858878008479
233 0 1 -146.5 -19.678039210542046 2.5906630096905725
234 0 1 -146.5 -19.828949489201932 0.8657506315838127
235 0 1 -146.5 -19.828949489201932 -0.865750631583815
236 0 1 -146.5 -19.678039210542046 -2.590663009690566
237 0 1 -146.5 -19.377367171564998 -4.295858878008482
238 0 1 -146.5 -18.929221668038142 -5.968360666354243
239 0 1 -146.5 -18.337013357840977 -7.5954396262343415
240 0 1 -146.5 -17.605249303799248 -9.164712704306957
241 0 1 -146.5 -16.73949867221543 -10.664236784894971
242 0 1 -146.5 -15.746350348150411 -12.082599584307705
243 0 1 -146.5 -14.633362790029663 -13.40900650521076
244 0 1 -146.5 -13.40900650521076 -14.633362790029665
245 0 1 -146.5 -12.082599584307706 -15.746350348150408
246 0 1 -146.5 -10.66423678489497 -16.739498672215433
247 0 1 -146.5 -9.16471270430696 -17.605249303799248
248 0 1 -146.5 -7.595439626234341 -18.337013357840977
249 0 1 -146.5 -5.968360666354241 -18.929221668038146
250 0 1 -146.5 -4.295858878008481 -19.377367171564998
251 0 1 -146.5 -2.590663009690568 -19.678039210542046
252 0 1 -146.5 -0.8657506315838148 -19.828949489201932
253 0 1 -146.5 0.8657506315838148 -19.828949489201932
254 0 1 -146.5 2.590663009690568 -19.678039210542046
255 0 1 -146.5 4.295858878008481 -19.377367171564998
256 0 1 -146.5 5.968360666354241 -18.929221668038146
257 0 1 -146.5 7.595439626234341 -18.337013357840977
258 0 1 -146.5 9.16471270430696 -17.605249303799248
259 0 1 -146.5 10.66423678489497 -16.739498672215433
260 0 1 -146.5 12.082599584307706 -15.746350348150408
261 0 1 -146.5 13.40900650521076 -14.633362790029665
262 0 1 -146.5 14.633362790029663 -13.40900650521076
263 0 1 -146.5 15.746350348150411 -12.082599584307705
264 0 1 -146.5 16.73949867221543 -10.664236784894971
265 0 1 -146.5 17.605249303799248 -9.164712704306957
266 0 1 -146.5 18.337013357840977 -7.5954396262343415
267 0 1 -146.5 18.929221668038142 -5.968360666354243
268 0 1 -146.5 19.377367171564998 -4.295858878008482
269 0 1 -146.5 19.678039210542046 -2.590663009690566
270 0 1 -146.5 19.828949489201932 -0.865750631583815
271 0 1 -146.5 19.828949489201932 0.8657506315838127
272 0 1 -146.5 19.678039210542046 2.5906630096905725
273 0 1 -146.5 19.377367171564998 4.295858878008479
274 0 1 -146.5 18.929221668038146 5.968360666354239
275 0 1 -146.5 18.337013357840977 7.595439626234342
276 0 1 -146.5 17.605249303799244 9.164712704306964
277 0 1 -146.5 16.739498672215436 10.664236784894966
278 0 1 -146.5 15.746350348150408 12.082599584307706
279 0 1 -146.5 14.633362790029665 13.40900650521076
280 0 1 -146.5 13.409006505210762 14.633362790029663
281 0 1 -146.5 12.082599584307712 15.746350348150406
282 0 1 -146.5 10.66423678489497 16.739498672215433
283 0 1 -146.5 9.16471270430696 17.605249303799248
284 0 1 -146.5 7.595439626234342 18.337013357840977
285 0 1 -146.5 5.968360666354235 18.92922166803815
286 0 1 -146.5 4.295858878008487 19.377367171564998
287 0 1 -146.5 2.5906630096905676 19.678039210542046
288 0 1 -146.5 0.8657506315838163 19.828949489201932
289 0 1 -145.5 -0.8657506315838163 19.828949489201932
290 0 1 -145.5 -2.5906630096905676 19.678039210542046
291 0 1 -145.5 -4.295858878008487 19.377367171564998
292 0 1 -145.5 -5.968360666354235 18.92922166803815
293 0 1 -145.5 -7.595439626234342 18.337013357840977
294 0 1 -145.5 -9.16471270430696 17.605249303799248
295 0 1 -145.5 -10.66423678489497 16.739498672215433
296 0 1 -145.5 -12.082599584307712 15.746350348150406
297 0 1 -145.5 -13.409006505210762 14.633362790029663
298 0 1 -145.5 -14.633362790029665 13.40900650521076
299 0 1 -145.5 -15.746350348150408 12.082599584307706
300 0 1 -145.5 -16.739498672215436 10.664236784894966
301 0 1 -145.5 -17.605249303799244 9.164712704306964
302 0 1 -145.5 -18.337013357840977 7.595439626234342
303 0 1 -145.5 -18.929221668038146 5.968360666354239
304 0 1 -145.5 -19.377367171564998 4.295858878008479
305 0 1 -145.5 -19.678039210542046 2.5906630096905725
306 0 1 -145.5 -19.828949489201932 0.8657506315838127
307 0 1 -145.5 -19.828949489201932 -0.865750631583815
308 0 1 -145.5 -19.678039210542046 -2.590663009690566
309 0 1 -145.5 -19.377367171564998 -4.295858878008482
310 0 1 -145.5 -18.929221668038142 -5.968360666354243
311 0 1 -145.5 -18.337013357840977 -7.5954396262343415
312 0 1 -145.5 -17.605249303799248 -9.164712704306957
313 0 1 -145.5 -16.73949867221543 -10.664236784894971
314 0 1 -145.5 -15.746350348150411 -12.082599584307705
315 0 1 -145.5 -14.633362790029663 -13.40900650521076
316 0 1 -145.5 -13.40900650521076 -14.633362790029665
317 0 1 -145.5 -12.082599584307706 -15.746350348150408
318 0 1 -145.5 -10.66423678489497 -16.739498672215433
319 0 1 -145.5 -9.16471270430696 -17.605249303799248
320 0 1 -145.5 -7.595439626234341 -18.337013357840977
321 0 1 -145.5 -5.968360666354241 -18.929221668038146
322 0 1 -145.5 -4.295858878008481 -19.377367171564998
323 0 1 -145.5 -2.590663009690568 -19.678039210542046
324 0 1 -145.5 -0.8657506315838148 -19.828949489201932
325 0 1 -145.5 0.8657506315838148 -19.828949489201932
326 0 1 -145.5 2.590663009690568 -19.678039210542046
327 0 1 -145.5 4.295858878008481 -19.377367171564998
328 0 1 -145.5 5.968360666354241 -18.929221668038146
329 0 1 -145.5 7.595439626234341 -18.337013357840977
330 0 1 -145.5 9.16471270430696 -17.605249303799248
331 0 1 -145.5 10.66423678489497 -16.739498672215433
332 0 1 -145.5 12.082599584307706 -15.746350348150408
333 0 1 -145.5 13.40900650521076 -14.633362790029665
334 0 1 -145.5 14.633362790029663 -13.40900650521076
335 0 1 -145.5 15.746350348150411 -12.082599584307705
336 0 1 -145.5 16.73949867221543 -10.664236784894971
337 0 1 -145.5 17.605249303799248 -9.164712704306957
338 0 1 -145.5 18.337013357840977 -7.5954396262343415
339 0 1 -145.5 18.929221668038142 -5.968360666354243
340 0 1 -145.5 19.377367171564998 -4.295858878008482
341 0 1 -145.5 19.678039210542046 -2.590663009690566
342 0 1 -145.5 19.828949489201932 -0.865750631583815
343 0 1 -145.5 19.828949489201932 0.8657506315838127
344 0 1 -145.5 19.678039210542046 2.5906630096905725
345 0 1 -145.5 19.377367171564998 4.295858878008479
346 0 1 -145.5 18.929221668038146 5.968360666354239
347 0 1 -145.5 18.337013357840977 7.595439626234342
348 0 1 -145.5 17.605249303799244 9.164712704306964
349 0 1 -145.5 16.739498672215436 10.664236784894966
350 0 1 -145.5 15.746350348150408 12.082599584307706
351 0 1 -145.5 14.633362790029665 13.40900650521076
352 0 1 -145.5 13.409006505210762 14.633362790029663
353 0 1 -145.5 12.082599584307712 15.746350348150406
354 0 1 -145.5 10.66423678489497 16.739498672215433
355 0 1 -145.5 9.16471270430696 17.605249303799248
356 0 1 -145.5 7.595439626234342 18.337013357840977
357 0 1 -145.5 5.968360666354235 18.92922166803815
358 0 1 -145.5 4.295858878008487 19.377367171564998
359 0 1 -145.5 2.5906630096905676 19.678039210542046
360 0 1 -145.5 0.8657506315838163 19.828949489201932
361 0 1 -144.5 -0.8657506315838163 19.828949489201932
362 0 1 -144.5 -2.5906630096905676 19.678039210542046
363 0 1 -144.5 -4.295858878008487 19.377367171564998
364 0 1 -144.5 -5.968360666354235 18.92922166803815
365 0 1 -144.5 -7.595439626234342 18.337013357840977
366 0 1 -144.5 -9.16471270430696 17.605249303799248
367 0 1 -144.5 -10.66423678489497 16.739498672215433
368 0 1 -144.5 -12.082599584307712 15.746350348150406
369 0 1 -144.5 -13.409006505210762 14.633362790029663
370 0 1 -144.5 -14.633362790029665 13.40900650521076
371 0 1 -144.5 -15.746350348150408 12.082599584307706
372 0 1 -144.5 -16.739498672215436 10.664236784894966
373 0 1 -144.5 -17.605249303799244 9.164712704306964
374 0 1 -144.5 -18.337013357840977 7.595439626234342
375 0 1 -144.5 -18.929221668038146 5.968360666354239
376 0 1 -144.5 -19.377367171564998 4.295858878008479
377 0 1 -144.5 -19.678039210542046 2.5906630096905725
378 0 1 -144.5 -19.828949489201932 0.8657506315838127
379 0 1 -144.5 -19.828949489201932 -0.865750631583815
380 0 1 -144.5 -19.678039210542046 -2.590663009690566
381 0 1 -144.5 -19.377367171564998 -4.295858878008482
382 0 1 -144.5 -18.929221668038142 -5.968360666354243
383 0 1 -144.5 -18.337013357840977 -7.5954396262343415
384 0 1 -144.5 -17.605249303799248 -9.164712704306957
385 0 1 -144.5 -16.73949867221543 -10.664236784894971
386 0 1 -144.5 -15.746350348150411 -12.082599584307705
387 0 1 -144.5 -14.633362790029663 -13.40900650521076
388 0 1 -144.5 -13.40900650521076 -14.633362790029665
389 0 1 -144.5 -12.082599584307706 -15.746350348150408
390 0 1 -144.5 -10.66423678489497 -16.739498672215433
391 0 1 -144.5 -9.16471270430696 -17.605249303799248
392 0 1 -144.5 -7.595439626234341 -18.337013357840977
393 0 1 -144.5 -5.968360666354241 -18.929221668038146
394 0 1 -144.5 -4.295858878008481 -19.377367171564998
395 0 1 -144.5 -2.590663009690568 -19.678039210542046
396 0 1 -144.5 -0.8657506315838148 -19.828949489201932
397 0 1 -144.5 0.8657506315838148 -19.828949489201932
398 0 1 -144.5 2.590663009690568 -19.678039210542046
399 0 1 -144.5 4.295858878008481 -19.377367171564998
400 0 1 -144.5 5.968360666354241 -18.929221668038146
401 0 1 -144.5 7.595439626234341 -18.337013357840977
402 0 1 -144.5 9.16471270430696 -17.605249303799248
403 0 1 -144.5 10.66423678489497 -16.739498672215433
404 0 1 -144.5 12.082599584307706 -15.746350348150408
405 0 1 -144.5 13.40900650521076 -14.633362790029665
406 0 1 -144.5 14.633362790029663 -13.40900650521076
407 0 1 -144.5 15.746350348150411 -12.082599584307705
408 0 1 -144.5 16.73949867221543 -10.664236784894971
409 0 1 -144.5 17.605249303799248 -9.164712704306957
410 0 1 -144.5 18.337013357840977 -7.5954396262343415
411 0 1 -144.5 18.929221668038142 -5.968360666354243
412 0 1 -144.5 19.377367171564998 -4.295858878008482
413 0 1 -144.5 19.678039210542046 -2.590663009690566
414 0 1 -144.5 19.828949489201932 -0.865750631583815
415 0 1 -144.5 19.828949489201932 0.8657506315838127
416 0 1 -144.5 19.678039210542046 2.5906630096905725
417 0 1 -144.5 19.377367171564998 4.295858878008479
418 0 1 -144.5 18.929221668038146 5.968360666354239
419 0 1 -144.5 18.337013357840977 7.595439626234342
420 0 1 -144.5 17.605249303799244 9.164712704306964
421 0 1 -144.5 16.739498672215436 10.664236784894966
422 0 1 -144.5 15.746350348150408 12.082599584307706
423 0 1 -144.5 14.633362790029665 13.40900650521076
424 0 1 -144.5 13.409006505210762 14.633362790029663
425 0 1 -144.5 12.082599584307712 15.746350348150406
426 0 1 -144.5 10.66423678489497 16.739498672215433
427 0 1 -144.5 9.16471270430696 17.605249303799248
428 0 1 -144.5 7.595439626234342 18.337013357840977
429 0 1 -144.5 5.968360666354235 18.92922166803815
430 0 1 -144.5 4.295858878008487 19.377367171564998
431 0 1 -144.5 2.5906630096905676 19.678039210542046
432 0 1 -144.5 0.8657506315838163 19.828949489201932
433 0 1 -143.5 -0.8657506315838163 19.828949489201932
434 0 1 -143.5 -2.5906630096905676 19.678039210542046
435 0 1 -143.5 -4.295858878008487 19.377367171564998
436 0 1 -143.5 -5.968360666354235 18.92922166803815
437 0 1 -143.5 -7.595439626234342 18.337013357840977
438 0 1 -143.5 -9.16471270430696 17.605249303799248
439 0 1 -143.5 -10.66423678489497 16.739498672215433
440 0 1 -143.5 -12.082599584307712 15.746350348150406
441 0 1 -143.5 -13.409006505210762 14.633362790029663
442 0 1 -143.5 -14.633362790029665 13.40900650521076
443 0 1 -143.5 -15.746350348150408 12.082599584307706
444 0 1 -143.5 -16.739498672215436 10.664236784894966
445 0 1 -143.5 -17.605249303799244 9.164712704306964
446 0 1 -143.5 -18.337013357840977 7.595439626234342
447 0 1 -143.5 -18.929221668038146 5.968360666354239
448 0 1 -143.5 -19.377367171564998 4.295858878008479
449 0 1 -143.5 -19.678039210542046 2.5906630096905725
450 0 1 -143.5 -19.828949489201932 0.8657506315838127
451 0 1 -143.5 -19.828949489201932 -0.865750631583815
452 0 1 -143.5 -19.678039210542046 -2.590663009690566
453 0 1 -143.5 -19.377367171564998 -4.295858878008482
454 0 1 -143.5 -18.929221668038142 -5.968360666354243
455 0 1 -143.5 -18.337013357840977 -7.5954396262343415
456 0 1 -143.5 -17.605249303799248 -9.164712704306957
457 0 1 -143.5 -16.73949867221543 -10.664236784894971
458 0 1 -143.5 -15.746350348150411 -12.082599584307705
459 0 1 -143.5 -14.633362790029663 -13.40900650521076
460 0 1 -143.5 -13.40900650521076 -14.633362790029665
461 0 1 -143.5 -12.082599584307706 -15.746350348150408
462 0 1 -143.5 -10.66423678489497 -16.739498672215433
463 0 1 -143.5 -9.16471270430696 -17.605249303799248
464 0 1 -143.5 -7.595439626234341 -18.337013357840977
465 0 1 -143.5 -5.968360666354241 -18.929221668038146
466 0 1 -143.5 -4.295858878008481 -19.377367171564998
467 0 1 -143.5 -2.590663009690568 -19.678039210542046
468 0 1 -143.5 -0.8657506315838148 -19.828949489201932
469 0 1 -143.5 0.8657506315838148 -19.828949489201932
470 0 1 -143.5 2.590663009690568 -19.678039210542046
471 0 1 -143.5 4.295858878008481 -19.377367171564998
472 0 1 -143.5 5.968360666354241 -18.929221668038146
473 0 1 -143.5 7.595439626234341 -18.337013357840977
474 0 1 -143.5 9.16471270430696 -17.605249303799248
475 0 1 -143.5 10.66423678489497 -16.739498672215433
476 0 1 -143.5 12.082599584307706 -15.746350348150408
477 0 1 -143.5 13.40900650521076 -14.633362790029665
478 0 1 -143.5 14.633362790029663 -13.40900650521076
479 0 1 -143.5 15.746350348150411 -12.082599584307705
480 0 1 -143.5 16.73949867221543 -10.664236784894971
481 0 1 -143.5 17.605249303799248 -9.164712704306957
482 0 1 -143.5 18.337013357840977 -7.5954396262343415
483 0 1 -143.5 18.929221668038142 -5.968360666354243
484 0 1 -143.5 19.377367171564998 -4.295858878008482
485 0 1 -143.5 19.678039210542046 -2.590663009690566
486 0 1 -143.5 19.828949489201932 -0.865750631583815
487 0 1 -143.5 19.828949489201932 0.8657506315838127
488 0 1 -143.5 19.678039210542046 2.5906630096905725
489 0 1 -143.5 19.377367171564998 4.295858878008479
490 0 1 -143.5 18.929221668038146 5.968360666354239
491 0 1 -143.5 18.337013357840977 7.595439626234342
492 0 1 -143.5 17.605249303799244 9.164712704306964
493 0 1 -143.5 16.739498672215436 10.664236784894966
494 0 1 -143.5 15.746350348150408 12.082599584307706
495 0 1 -143.5 14.633362790029665 13.40900650521076
496 0 1 -143.5 13.409006505210762 14.633362790029663
497 0 1 -143.5 12.082599584307712 15.746350348150406
498 0 1 -143.5 10.66423678489497 16.739498672215433
499 0 1 -143.5 9.16471270430696 17.605249303799248
500 0 1 -143.5 7.595439626234342 18.337013357840977
501 0 1 -143.5 5.968360666354235 18.92922166803815
502 0 1 -143.5 4.295858878008487 19.377367171564998
503 0 1 -143.5 2.5906630096905676 19.678039210542046
504 0 1 -143.5 0.8657506315838163 19.828949489201932
505 0 1 -142.5 -0.8657506315838163 19.828949489201932
506 0 1 -142.5 -2.5906630096905676 19.678039210542046
507 0 1 -142.5 -4.295858878008487 19.377367171564998
508 0 1 -142.5 -5.968360666354235 18.92922166803815
509 0 1 -142.5 -7.595439626234342 18.337013357840977
510 0 1 -142.5 -9.16471270430696 17.605249303799248
511 0 1 -142.5 -10.66423678489497 16.739498672215433
512 0 1 -142.5 -12.082599584307712 15.746350348150406
513 0 1 -142.5 -13.409006505210762 14.633362790029663
514 0 1 -142.5 -14.633362790029665 13.40900650521076
515 0 1 -142.5 -15.746350348150408 12.082599584307706
516 0 1 -142.5 -16.739498672215436 10.664236784894966
517 0 1 -142.5 -17.605249303799244 9.164712704306964
518 0 1 -142.5 -18.337013357840977 7.595439626234342
519 0 1 -142.5 -18.929221668038146 5.968360666354239
520 0 1 -142.5 -19.377367171564998 4.295858878008479
521 0 1 -142.5 -19.678039210542046 2.5906630096905725
522 0 1 -142.5 -19.828949489201932 0.8657506315838127
523 0 1 -142.5 -19.828949489201932 -0.865750631583815
524 0 1 -142.5 -19.678039210542046 -2.590663009690566
525 0 1 -142.5 -19.377367171564998 -4.295858878008482
526 0 1 -142.5 -18.929221668038142 -5.968360666354243
527 0 1 -142.5 -18.337013357840977 -7.5954396262343415
528 0 1 -142.5 -17.605249303799248 -9.164712704306957
529 0 1 -142.5 -16.73949867221543 -10.664236784894971
530 0 1 -142.5 -15.746350348150411 -12.082599584307705
531 0 1 -142.5 -14.633362790029663 -13.40900650521076
532 0 1 -142.5 -13.40900650521076 -14.633362790029665
533 0 1 -142.5 -12.082599584307706 -15.746350348150408
534 0 1 -142.5 -10.66423678489497 -16.739498672215433
535 0 1 -142.5 -9.16471270430696 -17.605249303799248
536 0 1 -142.5 -7.595439626234341 -18.337013357840977
537 0 1 -142.5 -5.968360666354241 -18.929221668038146
538 0 1 -142.5 -4.295858878008481 -19.377367171564998
539 0 1 -142.5 -2.590663009690568 -19.678039210542046
540 0 1 -142.5 -0.8657506315838148 -19.828949489201932
541 0 1 -142.5 0.8657506315838148 -19.828949489201932
542 0 1 -142.5 2.590663009690568 -19.678039210542046
543 0 1 -142.5 4.295858878008481 -19.377367171564998
544 0 1 -142.5 5.968360666354241 -18.929221668038146
545 0 1 -142.5 7.595439626234341 -18.337013357840977
546 0 1 -142.5 9.16471270430696 -17.605249303799248
547 0 1 -142.5 10.66423678489497 -16.739498672215433
548 0 1 -142.5 12.082599584307706 -15.746350348150408
549 0 1 -142.5 13.40900650521076 -14.633362790029665
550 0 1 -142.5 14.633362790029663 -13.40900650521076
551 0 1 -142.5 15.746350348150411 -12.082599584307705
552 0 1 -142.5 16.73949867221543 -10.664236784894971
553 0 1 -142.5 17.605249303799248 -9.164712704306957
554 0 1 -142.5 18.337013357840977 -7.5954396262343415
555 0 1 -142.5 18.929221668038142 -5.968360666354243
556 0 1 -142.5 19.377367171564998 -4.295858878008482
557 0 1 -142.5 19.678039210542046 -2.590663009690566
558 0 1 -142.5 19.828949489201932 -0.865750631583815
559 0 1 -142.5 19.828949489201932 0.8657506315838127
560 0 1 -142.5 19.678039210542046 2.5906630096905725
561 0 1 -142.5 19.377367171564998 4.295858878008479